LAMMPS data file. CGCMM style. atom_style full generated by VMD/TopoTools v1.8 on Mon Aug 29 16:29:06 CEST 2022
 1466 atoms
 0 bonds
 0 angles
 0 dihedrals
 0 impropers
 5 atom types
 0 bond types
 0 angle types
 0 dihedral types
 0 improper types
 -2.220001 99.540001  xlo xhi
 -2.220001 99.540001  ylo yhi
 -2.220001 99.540001  zlo zhi

# Pair Coeffs
#
# 1  3
# 2  A
# 3  B
# 4  M
# 5  N

 Masses

 1 15.999400 # 3
 2 55.845001 # A
 3 55.845001 # B
 4 55.845001 # M
 5 55.845001 # N

 Atoms # full

1 2 2 1.575000 38.060001 38.060001 38.060001 # A 
2 1 1 -1.050000 39.156799 45.443199 45.443199 # 3 
3 1 1 -1.050000 45.443199 39.156799 45.443199 # 3 
4 1 1 -1.050000 45.443199 45.443199 39.156799 # 3 
5 1 1 -1.050000 39.156799 39.156799 39.156799 # 3 
6 2 2 1.575000 38.060001 38.060001 46.540001 # A 
7 1 1 -1.050000 45.443199 45.443199 47.636799 # 3 
8 1 1 -1.050000 39.156799 39.156799 47.636799 # 3 
9 1 1 -1.050000 39.156799 45.443199 36.963200 # 3 
10 1 1 -1.050000 45.443199 39.156799 36.963200 # 3 
11 2 2 1.575000 38.060001 46.540001 38.060001 # A 
12 1 1 -1.050000 45.443199 47.636799 45.443199 # 3 
13 1 1 -1.050000 39.156799 47.636799 39.156799 # 3 
14 2 2 1.575000 38.060001 46.540001 46.540001 # A 
15 1 1 -1.050000 39.156799 47.636799 47.636799 # 3 
16 1 1 -1.050000 45.443199 47.636799 36.963200 # 3 
17 1 1 -1.050000 39.156799 36.963200 45.443199 # 3 
18 1 1 -1.050000 45.443199 36.963200 39.156799 # 3 
19 1 1 -1.050000 45.443199 36.963200 47.636799 # 3 
20 1 1 -1.050000 39.156799 36.963200 36.963200 # 3 
21 2 2 1.575000 46.540001 38.060001 38.060001 # A 
22 1 1 -1.050000 47.636799 45.443199 45.443199 # 3 
23 1 1 -1.050000 47.636799 39.156799 39.156799 # 3 
24 2 2 1.575000 46.540001 38.060001 46.540001 # A 
25 1 1 -1.050000 47.636799 39.156799 47.636799 # 3 
26 1 1 -1.050000 47.636799 45.443199 36.963200 # 3 
27 2 2 1.575000 46.540001 46.540001 38.060001 # A 
28 1 1 -1.050000 47.636799 47.636799 39.156799 # 3 
29 2 2 1.575000 46.540001 46.540001 46.540001 # A 
30 1 1 -1.050000 47.636799 47.636799 47.636799 # 3 
31 1 1 -1.050000 47.636799 36.963200 45.443199 # 3 
32 1 1 -1.050000 47.636799 36.963200 36.963200 # 3 
33 1 1 -1.050000 36.963200 39.156799 45.443199 # 3 
34 1 1 -1.050000 36.963200 45.443199 39.156799 # 3 
35 1 1 -1.050000 36.963200 45.443199 47.636799 # 3 
36 1 1 -1.050000 36.963200 39.156799 36.963200 # 3 
37 1 1 -1.050000 36.963200 47.636799 45.443199 # 3 
38 1 1 -1.050000 36.963200 47.636799 36.963200 # 3 
39 1 1 -1.050000 36.963200 36.963200 39.156799 # 3 
40 1 1 -1.050000 36.963200 36.963200 47.636799 # 3 
41 2 2 1.575000 40.180000 40.180000 44.419998 # A 
42 2 2 1.575000 38.079998 40.160000 40.200001 # A 
43 3 4 1.575000 37.000000 39.119999 43.360001 # M 
44 3 4 1.575000 39.119999 37.000000 43.360001 # M 
45 3 4 1.575000 37.000000 37.000000 41.240002 # M 
46 1 1 -1.050000 39.083199 39.083199 43.323200 # 3 
47 1 1 -1.050000 39.083199 37.036800 41.276798 # 3 
48 1 1 -1.050000 37.036800 37.036800 43.323200 # 3 
49 1 1 -1.050000 37.036800 39.083199 41.276798 # 3 
50 2 2 1.575000 40.180000 40.180000 52.900002 # A 
51 3 4 1.575000 39.119999 39.119999 49.720001 # M 
52 3 4 1.575000 37.000000 39.119999 51.840000 # M 
53 3 4 1.575000 39.119999 37.000000 51.840000 # M 
54 3 4 1.575000 37.000000 37.000000 49.720001 # M 
55 1 1 -1.050000 39.083199 39.083199 51.803200 # 3 
56 1 1 -1.050000 39.083199 37.036800 49.756802 # 3 
57 1 1 -1.050000 37.036800 37.036800 51.803200 # 3 
58 1 1 -1.050000 37.036800 39.083199 49.756802 # 3 
59 2 2 1.575000 40.180000 48.660000 44.419998 # A 
60 3 4 1.575000 39.119999 47.599998 41.240002 # M 
61 3 4 1.575000 37.000000 47.599998 43.360001 # M 
62 3 4 1.575000 39.119999 45.480000 43.360001 # M 
63 3 4 1.575000 37.000000 45.480000 41.240002 # M 
64 1 1 -1.050000 39.083199 47.563202 43.323200 # 3 
65 1 1 -1.050000 39.083199 45.516800 41.276798 # 3 
66 1 1 -1.050000 37.036800 45.516800 43.323200 # 3 
67 1 1 -1.050000 37.036800 47.563202 41.276798 # 3 
68 2 2 1.575000 40.180000 48.660000 52.900002 # A 
69 3 4 1.575000 39.119999 47.599998 49.720001 # M 
70 3 4 1.575000 37.000000 47.599998 51.840000 # M 
71 3 4 1.575000 39.119999 45.480000 51.840000 # M 
72 3 4 1.575000 37.000000 45.480000 49.720001 # M 
73 1 1 -1.050000 39.083199 47.563202 51.803200 # 3 
74 1 1 -1.050000 39.083199 45.516800 49.756802 # 3 
75 1 1 -1.050000 37.036800 45.516800 51.803200 # 3 
76 1 1 -1.050000 37.036800 47.563202 49.756802 # 3 
77 2 2 1.575000 48.660000 40.180000 44.419998 # A 
78 3 4 1.575000 47.599998 39.119999 41.240002 # M 
79 3 4 1.575000 45.480000 39.119999 43.360001 # M 
80 3 4 1.575000 47.599998 37.000000 43.360001 # M 
81 3 4 1.575000 45.480000 37.000000 41.240002 # M 
82 1 1 -1.050000 47.563202 39.083199 43.323200 # 3 
83 1 1 -1.050000 47.563202 37.036800 41.276798 # 3 
84 1 1 -1.050000 45.516800 37.036800 43.323200 # 3 
85 1 1 -1.050000 45.516800 39.083199 41.276798 # 3 
86 2 2 1.575000 48.660000 40.180000 52.900002 # A 
87 3 4 1.575000 47.599998 39.119999 49.720001 # M 
88 3 4 1.575000 45.480000 39.119999 51.840000 # M 
89 3 4 1.575000 47.599998 37.000000 51.840000 # M 
90 3 4 1.575000 45.480000 37.000000 49.720001 # M 
91 1 1 -1.050000 47.563202 39.083199 51.803200 # 3 
92 1 1 -1.050000 47.563202 37.036800 49.756802 # 3 
93 1 1 -1.050000 45.516800 37.036800 51.803200 # 3 
94 1 1 -1.050000 45.516800 39.083199 49.756802 # 3 
95 2 2 1.575000 48.660000 48.660000 44.419998 # A 
96 3 5 1.050000 47.599998 47.599998 41.240002 # N 
97 3 4 1.575000 45.480000 47.599998 43.360001 # M 
98 3 4 1.575000 47.599998 45.480000 43.360001 # M 
99 3 5 1.050000 45.480000 45.480000 41.240002 # N 
100 1 1 -1.050000 47.563202 47.563202 43.323200 # 3 
101 1 1 -1.050000 47.563202 45.516800 41.276798 # 3 
102 1 1 -1.050000 45.516800 45.516800 43.323200 # 3 
103 1 1 -1.050000 45.516800 47.563202 41.276798 # 3 
104 2 2 1.575000 48.660000 48.660000 52.900002 # A 
105 3 5 1.050000 47.599998 47.599998 49.720001 # N 
106 3 5 1.050000 45.480000 47.599998 51.840000 # N 
107 3 5 1.050000 47.599998 45.480000 51.840000 # N 
108 3 4 1.575000 45.480000 45.480000 49.720001 # M 
109 1 1 -1.050000 47.563202 47.563202 51.803200 # 3 
110 1 1 -1.050000 47.563202 45.516800 49.756802 # 3 
111 1 1 -1.050000 45.516800 45.516800 51.803200 # 3 
112 1 1 -1.050000 45.516800 47.563202 49.756802 # 3 
113 2 2 1.575000 40.180000 44.419998 40.180000 # A 
114 2 2 1.575000 40.160000 40.200001 38.079998 # A 
115 3 4 1.575000 37.000000 43.360001 39.119999 # M 
116 3 4 1.575000 37.000000 41.240002 37.000000 # M 
117 3 4 1.575000 39.119999 43.360001 37.000000 # M 
118 1 1 -1.050000 37.036800 41.276798 39.083199 # 3 
119 1 1 -1.050000 37.036800 43.323200 37.036800 # 3 
120 1 1 -1.050000 39.083199 43.323200 39.083199 # 3 
121 1 1 -1.050000 39.083199 41.276798 37.036800 # 3 
122 2 2 1.575000 40.180000 44.419998 48.660000 # A 
123 3 4 1.575000 39.119999 41.240002 47.599998 # M 
124 3 4 1.575000 37.000000 43.360001 47.599998 # M 
125 3 4 1.575000 37.000000 41.240002 45.480000 # M 
126 3 4 1.575000 39.119999 43.360001 45.480000 # M 
127 1 1 -1.050000 37.036800 41.276798 47.563202 # 3 
128 1 1 -1.050000 37.036800 43.323200 45.516800 # 3 
129 1 1 -1.050000 39.083199 43.323200 47.563202 # 3 
130 1 1 -1.050000 39.083199 41.276798 45.516800 # 3 
131 2 2 1.575000 40.180000 52.900002 40.180000 # A 
132 3 4 1.575000 39.119999 49.720001 39.119999 # M 
133 3 4 1.575000 37.000000 51.840000 39.119999 # M 
134 3 4 1.575000 37.000000 49.720001 37.000000 # M 
135 3 4 1.575000 39.119999 51.840000 37.000000 # M 
136 1 1 -1.050000 37.036800 49.756802 39.083199 # 3 
137 1 1 -1.050000 37.036800 51.803200 37.036800 # 3 
138 1 1 -1.050000 39.083199 51.803200 39.083199 # 3 
139 1 1 -1.050000 39.083199 49.756802 37.036800 # 3 
140 2 2 1.575000 40.180000 52.900002 48.660000 # A 
141 3 5 1.050000 39.119999 49.720001 47.599998 # N 
142 3 4 1.575000 37.000000 51.840000 47.599998 # M 
143 3 4 1.575000 37.000000 49.720001 45.480000 # M 
144 3 4 1.575000 39.119999 51.840000 45.480000 # M 
145 1 1 -1.050000 37.036800 49.756802 47.563202 # 3 
146 1 1 -1.050000 37.036800 51.803200 45.516800 # 3 
147 1 1 -1.050000 39.083199 51.803200 47.563202 # 3 
148 1 1 -1.050000 39.083199 49.756802 45.516800 # 3 
149 2 2 1.575000 48.660000 44.419998 40.180000 # A 
150 3 4 1.575000 47.599998 41.240002 39.119999 # M 
151 3 4 1.575000 45.480000 43.360001 39.119999 # M 
152 3 4 1.575000 45.480000 41.240002 37.000000 # M 
153 3 4 1.575000 47.599998 43.360001 37.000000 # M 
154 1 1 -1.050000 45.516800 41.276798 39.083199 # 3 
155 1 1 -1.050000 45.516800 43.323200 37.036800 # 3 
156 1 1 -1.050000 47.563202 43.323200 39.083199 # 3 
157 1 1 -1.050000 47.563202 41.276798 37.036800 # 3 
158 2 2 1.575000 48.660000 44.419998 48.660000 # A 
159 3 5 1.050000 47.599998 41.240002 47.599998 # N 
160 3 4 1.575000 45.480000 43.360001 47.599998 # M 
161 3 5 1.050000 45.480000 41.240002 45.480000 # N 
162 3 5 1.050000 47.599998 43.360001 45.480000 # N 
163 1 1 -1.050000 45.516800 41.276798 47.563202 # 3 
164 1 1 -1.050000 45.516800 43.323200 45.516800 # 3 
165 1 1 -1.050000 47.563202 43.323200 47.563202 # 3 
166 1 1 -1.050000 47.563202 41.276798 45.516800 # 3 
167 2 2 1.575000 48.660000 52.900002 40.180000 # A 
168 3 4 1.575000 47.599998 49.720001 39.119999 # M 
169 3 4 1.575000 45.480000 51.840000 39.119999 # M 
170 3 4 1.575000 45.480000 49.720001 37.000000 # M 
171 3 4 1.575000 47.599998 51.840000 37.000000 # M 
172 1 1 -1.050000 45.516800 49.756802 39.083199 # 3 
173 1 1 -1.050000 45.516800 51.803200 37.036800 # 3 
174 1 1 -1.050000 47.563202 51.803200 39.083199 # 3 
175 1 1 -1.050000 47.563202 49.756802 37.036800 # 3 
176 2 2 1.575000 48.660000 52.900002 48.660000 # A 
177 3 5 1.050000 47.599998 49.720001 47.599998 # N 
178 3 5 1.050000 45.480000 51.840000 47.599998 # N 
179 3 5 1.050000 45.480000 49.720001 45.480000 # N 
180 3 4 1.575000 47.599998 51.840000 45.480000 # M 
181 1 1 -1.050000 45.516800 49.756802 47.563202 # 3 
182 1 1 -1.050000 45.516800 51.803200 45.516800 # 3 
183 1 1 -1.050000 47.563202 51.803200 47.563202 # 3 
184 1 1 -1.050000 47.563202 49.756802 45.516800 # 3 
185 2 2 1.575000 38.060001 42.299999 42.299999 # A 
186 1 1 -1.050000 45.443199 41.203201 43.396801 # 3 
187 1 1 -1.050000 39.156799 43.396801 43.396801 # 3 
188 1 1 -1.050000 39.156799 41.203201 41.203201 # 3 
189 1 1 -1.050000 45.443199 43.396801 41.203201 # 3 
190 2 2 1.575000 38.060001 42.299999 50.779999 # A 
191 1 1 -1.050000 45.443199 41.203201 51.876801 # 3 
192 1 1 -1.050000 39.156799 43.396801 51.876801 # 3 
193 1 1 -1.050000 39.156799 41.203201 49.683201 # 3 
194 1 1 -1.050000 45.443199 43.396801 49.683201 # 3 
195 2 2 1.575000 38.060001 50.779999 42.299999 # A 
196 1 1 -1.050000 45.443199 49.683201 43.396801 # 3 
197 1 1 -1.050000 39.156799 51.876801 43.396801 # 3 
198 1 1 -1.050000 39.156799 49.683201 41.203201 # 3 
199 1 1 -1.050000 45.443199 51.876801 41.203201 # 3 
200 2 2 1.575000 38.060001 50.779999 50.779999 # A 
201 1 1 -1.050000 45.443199 49.683201 51.876801 # 3 
202 1 1 -1.050000 39.156799 51.876801 51.876801 # 3 
203 1 1 -1.050000 39.156799 49.683201 49.683201 # 3 
204 1 1 -1.050000 45.443199 51.876801 49.683201 # 3 
205 2 2 1.575000 46.540001 42.299999 42.299999 # A 
206 1 1 -1.050000 47.636799 43.396801 43.396801 # 3 
207 1 1 -1.050000 47.636799 41.203201 41.203201 # 3 
208 2 2 1.575000 46.540001 42.299999 50.779999 # A 
209 1 1 -1.050000 47.636799 43.396801 51.876801 # 3 
210 1 1 -1.050000 47.636799 41.203201 49.683201 # 3 
211 2 2 1.575000 46.540001 50.779999 42.299999 # A 
212 1 1 -1.050000 47.636799 51.876801 43.396801 # 3 
213 1 1 -1.050000 47.636799 49.683201 41.203201 # 3 
214 2 2 1.575000 46.540001 50.779999 50.779999 # A 
215 1 1 -1.050000 47.636799 51.876801 51.876801 # 3 
216 1 1 -1.050000 47.636799 49.683201 49.683201 # 3 
217 1 1 -1.050000 36.963200 41.203201 43.396801 # 3 
218 1 1 -1.050000 36.963200 43.396801 41.203201 # 3 
219 1 1 -1.050000 36.963200 41.203201 51.876801 # 3 
220 1 1 -1.050000 36.963200 43.396801 49.683201 # 3 
221 1 1 -1.050000 36.963200 49.683201 43.396801 # 3 
222 1 1 -1.050000 36.963200 51.876801 41.203201 # 3 
223 1 1 -1.050000 36.963200 49.683201 51.876801 # 3 
224 1 1 -1.050000 36.963200 51.876801 49.683201 # 3 
225 2 2 1.575000 44.419998 40.180000 40.180000 # A 
226 3 4 1.575000 41.240002 37.000000 37.000000 # M 
227 2 2 1.575000 40.200001 38.079998 40.160000 # A 
228 3 4 1.575000 43.360001 37.000000 39.119999 # M 
229 3 4 1.575000 43.360001 39.119999 37.000000 # M 
230 1 1 -1.050000 43.323200 37.036800 37.036800 # 3 
231 1 1 -1.050000 43.323200 39.083199 39.083199 # 3 
232 1 1 -1.050000 41.276798 39.083199 37.036800 # 3 
233 1 1 -1.050000 41.276798 37.036800 39.083199 # 3 
234 2 2 1.575000 44.419998 40.180000 48.660000 # A 
235 3 4 1.575000 41.240002 37.000000 45.480000 # M 
236 3 4 1.575000 41.240002 39.119999 47.599998 # M 
237 3 4 1.575000 43.360001 37.000000 47.599998 # M 
238 3 4 1.575000 43.360001 39.119999 45.480000 # M 
239 1 1 -1.050000 43.323200 37.036800 45.516800 # 3 
240 1 1 -1.050000 43.323200 39.083199 47.563202 # 3 
241 1 1 -1.050000 41.276798 39.083199 45.516800 # 3 
242 1 1 -1.050000 41.276798 37.036800 47.563202 # 3 
243 2 2 1.575000 44.419998 48.660000 40.180000 # A 
244 3 4 1.575000 41.240002 45.480000 37.000000 # M 
245 3 4 1.575000 41.240002 47.599998 39.119999 # M 
246 3 4 1.575000 43.360001 45.480000 39.119999 # M 
247 3 4 1.575000 43.360001 47.599998 37.000000 # M 
248 1 1 -1.050000 43.323200 45.516800 37.036800 # 3 
249 1 1 -1.050000 43.323200 47.563202 39.083199 # 3 
250 1 1 -1.050000 41.276798 47.563202 37.036800 # 3 
251 1 1 -1.050000 41.276798 45.516800 39.083199 # 3 
252 2 2 1.575000 44.419998 48.660000 48.660000 # A 
253 3 4 1.575000 41.240002 45.480000 45.480000 # M 
254 3 5 1.050000 41.240002 47.599998 47.599998 # N 
255 3 4 1.575000 43.360001 45.480000 47.599998 # M 
256 3 5 1.050000 43.360001 47.599998 45.480000 # N 
257 1 1 -1.050000 43.323200 45.516800 45.516800 # 3 
258 1 1 -1.050000 43.323200 47.563202 47.563202 # 3 
259 1 1 -1.050000 41.276798 47.563202 45.516800 # 3 
260 1 1 -1.050000 41.276798 45.516800 47.563202 # 3 
261 2 2 1.575000 52.900002 40.180000 40.180000 # A 
262 3 4 1.575000 49.720001 37.000000 37.000000 # M 
263 3 4 1.575000 49.720001 39.119999 39.119999 # M 
264 3 4 1.575000 51.840000 37.000000 39.119999 # M 
265 3 4 1.575000 51.840000 39.119999 37.000000 # M 
266 1 1 -1.050000 51.803200 37.036800 37.036800 # 3 
267 1 1 -1.050000 51.803200 39.083199 39.083199 # 3 
268 1 1 -1.050000 49.756802 39.083199 37.036800 # 3 
269 1 1 -1.050000 49.756802 37.036800 39.083199 # 3 
270 2 2 1.575000 52.900002 40.180000 48.660000 # A 
271 3 4 1.575000 49.720001 37.000000 45.480000 # M 
272 3 4 1.575000 49.720001 39.119999 47.599998 # M 
273 3 4 1.575000 51.840000 37.000000 47.599998 # M 
274 3 4 1.575000 51.840000 39.119999 45.480000 # M 
275 1 1 -1.050000 51.803200 37.036800 45.516800 # 3 
276 1 1 -1.050000 51.803200 39.083199 47.563202 # 3 
277 1 1 -1.050000 49.756802 39.083199 45.516800 # 3 
278 1 1 -1.050000 49.756802 37.036800 47.563202 # 3 
279 2 2 1.575000 52.900002 48.660000 40.180000 # A 
280 3 4 1.575000 49.720001 45.480000 37.000000 # M 
281 3 4 1.575000 49.720001 47.599998 39.119999 # M 
282 3 4 1.575000 51.840000 45.480000 39.119999 # M 
283 3 4 1.575000 51.840000 47.599998 37.000000 # M 
284 1 1 -1.050000 51.803200 45.516800 37.036800 # 3 
285 1 1 -1.050000 51.803200 47.563202 39.083199 # 3 
286 1 1 -1.050000 49.756802 47.563202 37.036800 # 3 
287 1 1 -1.050000 49.756802 45.516800 39.083199 # 3 
288 2 2 1.575000 52.900002 48.660000 48.660000 # A 
289 3 4 1.575000 49.720001 45.480000 45.480000 # M 
290 3 4 1.575000 49.720001 47.599998 47.599998 # M 
291 3 5 1.050000 51.840000 45.480000 47.599998 # N 
292 3 5 1.050000 51.840000 47.599998 45.480000 # N 
293 1 1 -1.050000 51.803200 45.516800 45.516800 # 3 
294 1 1 -1.050000 51.803200 47.563202 47.563202 # 3 
295 1 1 -1.050000 49.756802 47.563202 45.516800 # 3 
296 1 1 -1.050000 49.756802 45.516800 47.563202 # 3 
297 2 2 1.575000 42.299999 38.060001 42.299999 # A 
298 1 1 -1.050000 41.203201 39.156799 41.203201 # 3 
299 1 1 -1.050000 43.396801 45.443199 41.203201 # 3 
300 1 1 -1.050000 43.396801 39.156799 43.396801 # 3 
301 1 1 -1.050000 41.203201 45.443199 43.396801 # 3 
302 2 2 1.575000 42.299999 38.060001 50.779999 # A 
303 1 1 -1.050000 41.203201 39.156799 49.683201 # 3 
304 1 1 -1.050000 43.396801 45.443199 49.683201 # 3 
305 1 1 -1.050000 43.396801 39.156799 51.876801 # 3 
306 1 1 -1.050000 41.203201 45.443199 51.876801 # 3 
307 2 2 1.575000 42.299999 46.540001 42.299999 # A 
308 1 1 -1.050000 41.203201 47.636799 41.203201 # 3 
309 1 1 -1.050000 43.396801 47.636799 43.396801 # 3 
310 2 2 1.575000 42.299999 46.540001 50.779999 # A 
311 1 1 -1.050000 41.203201 47.636799 49.683201 # 3 
312 1 1 -1.050000 43.396801 47.636799 51.876801 # 3 
313 1 1 -1.050000 43.396801 36.963200 41.203201 # 3 
314 1 1 -1.050000 41.203201 36.963200 43.396801 # 3 
315 1 1 -1.050000 43.396801 36.963200 49.683201 # 3 
316 1 1 -1.050000 41.203201 36.963200 51.876801 # 3 
317 2 2 1.575000 50.779999 38.060001 42.299999 # A 
318 1 1 -1.050000 49.683201 39.156799 41.203201 # 3 
319 1 1 -1.050000 51.876801 45.443199 41.203201 # 3 
320 1 1 -1.050000 51.876801 39.156799 43.396801 # 3 
321 1 1 -1.050000 49.683201 45.443199 43.396801 # 3 
322 2 2 1.575000 50.779999 38.060001 50.779999 # A 
323 1 1 -1.050000 49.683201 39.156799 49.683201 # 3 
324 1 1 -1.050000 51.876801 45.443199 49.683201 # 3 
325 1 1 -1.050000 51.876801 39.156799 51.876801 # 3 
326 1 1 -1.050000 49.683201 45.443199 51.876801 # 3 
327 2 2 1.575000 50.779999 46.540001 42.299999 # A 
328 1 1 -1.050000 49.683201 47.636799 41.203201 # 3 
329 1 1 -1.050000 51.876801 47.636799 43.396801 # 3 
330 2 2 1.575000 50.779999 46.540001 50.779999 # A 
331 1 1 -1.050000 49.683201 47.636799 49.683201 # 3 
332 1 1 -1.050000 51.876801 47.636799 51.876801 # 3 
333 1 1 -1.050000 51.876801 36.963200 41.203201 # 3 
334 1 1 -1.050000 49.683201 36.963200 43.396801 # 3 
335 1 1 -1.050000 51.876801 36.963200 49.683201 # 3 
336 1 1 -1.050000 49.683201 36.963200 51.876801 # 3 
337 2 2 1.575000 42.299999 42.299999 38.060001 # A 
338 1 1 -1.050000 43.396801 43.396801 39.156799 # 3 
339 1 1 -1.050000 41.203201 41.203201 39.156799 # 3 
340 1 1 -1.050000 41.203201 43.396801 45.443199 # 3 
341 1 1 -1.050000 43.396801 41.203201 45.443199 # 3 
342 2 2 1.575000 42.299999 42.299999 46.540001 # A 
343 1 1 -1.050000 43.396801 43.396801 47.636799 # 3 
344 1 1 -1.050000 41.203201 41.203201 47.636799 # 3 
345 1 1 -1.050000 41.203201 43.396801 36.963200 # 3 
346 1 1 -1.050000 43.396801 41.203201 36.963200 # 3 
347 2 2 1.575000 42.299999 50.779999 38.060001 # A 
348 1 1 -1.050000 43.396801 51.876801 39.156799 # 3 
349 1 1 -1.050000 41.203201 49.683201 39.156799 # 3 
350 1 1 -1.050000 41.203201 51.876801 45.443199 # 3 
351 1 1 -1.050000 43.396801 49.683201 45.443199 # 3 
352 2 2 1.575000 42.299999 50.779999 46.540001 # A 
353 1 1 -1.050000 43.396801 51.876801 47.636799 # 3 
354 1 1 -1.050000 41.203201 49.683201 47.636799 # 3 
355 1 1 -1.050000 41.203201 51.876801 36.963200 # 3 
356 1 1 -1.050000 43.396801 49.683201 36.963200 # 3 
357 2 2 1.575000 50.779999 42.299999 38.060001 # A 
358 1 1 -1.050000 51.876801 43.396801 39.156799 # 3 
359 1 1 -1.050000 49.683201 41.203201 39.156799 # 3 
360 1 1 -1.050000 49.683201 43.396801 45.443199 # 3 
361 1 1 -1.050000 51.876801 41.203201 45.443199 # 3 
362 2 2 1.575000 50.779999 42.299999 46.540001 # A 
363 1 1 -1.050000 51.876801 43.396801 47.636799 # 3 
364 1 1 -1.050000 49.683201 41.203201 47.636799 # 3 
365 1 1 -1.050000 49.683201 43.396801 36.963200 # 3 
366 1 1 -1.050000 51.876801 41.203201 36.963200 # 3 
367 2 2 1.575000 50.779999 50.779999 38.060001 # A 
368 1 1 -1.050000 51.876801 51.876801 39.156799 # 3 
369 1 1 -1.050000 49.683201 49.683201 39.156799 # 3 
370 1 1 -1.050000 49.683201 51.876801 45.443199 # 3 
371 1 1 -1.050000 51.876801 49.683201 45.443199 # 3 
372 2 2 1.575000 50.779999 50.779999 46.540001 # A 
373 1 1 -1.050000 51.876801 51.876801 47.636799 # 3 
374 1 1 -1.050000 49.683201 49.683201 47.636799 # 3 
375 1 1 -1.050000 49.683201 51.876801 36.963200 # 3 
376 1 1 -1.050000 51.876801 49.683201 36.963200 # 3 
377 2 2 1.575000 44.419998 44.419998 44.419998 # A 
378 3 5 1.050000 43.360001 43.360001 41.240002 # N 
379 3 4 1.575000 43.360001 41.240002 43.360001 # M 
380 3 5 1.050000 41.240002 43.360001 43.360001 # N 
381 3 4 1.575000 41.240002 41.240002 41.240002 # M 
382 1 1 -1.050000 41.276798 43.323200 41.276798 # 3 
383 1 1 -1.050000 41.276798 41.276798 43.323200 # 3 
384 1 1 -1.050000 43.323200 41.276798 41.276798 # 3 
385 1 1 -1.050000 43.323200 43.323200 43.323200 # 3 
386 2 2 1.575000 44.419998 44.419998 52.900002 # A 
387 3 5 1.050000 43.360001 43.360001 49.720001 # N 
388 3 4 1.575000 43.360001 41.240002 51.840000 # M 
389 3 5 1.050000 41.240002 43.360001 51.840000 # N 
390 3 5 1.050000 41.240002 41.240002 49.720001 # N 
391 1 1 -1.050000 41.276798 43.323200 49.756802 # 3 
392 1 1 -1.050000 41.276798 41.276798 51.803200 # 3 
393 1 1 -1.050000 43.323200 41.276798 49.756802 # 3 
394 1 1 -1.050000 43.323200 43.323200 51.803200 # 3 
395 2 2 1.575000 44.419998 52.900002 44.419998 # A 
396 3 5 1.050000 43.360001 51.840000 41.240002 # N 
397 3 4 1.575000 43.360001 49.720001 43.360001 # M 
398 3 4 1.575000 41.240002 51.840000 43.360001 # M 
399 3 5 1.050000 41.240002 49.720001 41.240002 # N 
400 1 1 -1.050000 41.276798 51.803200 41.276798 # 3 
401 1 1 -1.050000 41.276798 49.756802 43.323200 # 3 
402 1 1 -1.050000 43.323200 49.756802 41.276798 # 3 
403 1 1 -1.050000 43.323200 51.803200 43.323200 # 3 
404 2 2 1.575000 44.419998 52.900002 52.900002 # A 
405 3 4 1.575000 43.360001 51.840000 49.720001 # M 
406 3 4 1.575000 43.360001 49.720001 51.840000 # M 
407 3 4 1.575000 41.240002 51.840000 51.840000 # M 
408 3 4 1.575000 41.240002 49.720001 49.720001 # M 
409 1 1 -1.050000 41.276798 51.803200 49.756802 # 3 
410 1 1 -1.050000 41.276798 49.756802 51.803200 # 3 
411 1 1 -1.050000 43.323200 49.756802 49.756802 # 3 
412 1 1 -1.050000 43.323200 51.803200 51.803200 # 3 
413 2 2 1.575000 52.900002 44.419998 44.419998 # A 
414 3 4 1.575000 51.840000 43.360001 41.240002 # M 
415 3 5 1.050000 51.840000 41.240002 43.360001 # N 
416 3 5 1.050000 49.720001 43.360001 43.360001 # N 
417 3 5 1.050000 49.720001 41.240002 41.240002 # N 
418 1 1 -1.050000 49.756802 43.323200 41.276798 # 3 
419 1 1 -1.050000 49.756802 41.276798 43.323200 # 3 
420 1 1 -1.050000 51.803200 41.276798 41.276798 # 3 
421 1 1 -1.050000 51.803200 43.323200 43.323200 # 3 
422 2 2 1.575000 52.900002 44.419998 52.900002 # A 
423 3 4 1.575000 51.840000 43.360001 49.720001 # M 
424 3 5 1.050000 51.840000 41.240002 51.840000 # N 
425 3 4 1.575000 49.720001 43.360001 51.840000 # M 
426 3 5 1.050000 49.720001 41.240002 49.720001 # N 
427 1 1 -1.050000 49.756802 43.323200 49.756802 # 3 
428 1 1 -1.050000 49.756802 41.276798 51.803200 # 3 
429 1 1 -1.050000 51.803200 41.276798 49.756802 # 3 
430 1 1 -1.050000 51.803200 43.323200 51.803200 # 3 
431 2 2 1.575000 52.900002 52.900002 44.419998 # A 
432 3 4 1.575000 51.840000 51.840000 41.240002 # M 
433 3 4 1.575000 51.840000 49.720001 43.360001 # M 
434 3 5 1.050000 49.720001 51.840000 43.360001 # N 
435 3 5 1.050000 49.720001 49.720001 41.240002 # N 
436 1 1 -1.050000 49.756802 51.803200 41.276798 # 3 
437 1 1 -1.050000 49.756802 49.756802 43.323200 # 3 
438 1 1 -1.050000 51.803200 49.756802 41.276798 # 3 
439 1 1 -1.050000 51.803200 51.803200 43.323200 # 3 
440 2 2 1.575000 52.900002 52.900002 52.900002 # A 
441 3 4 1.575000 51.840000 51.840000 49.720001 # M 
442 3 5 1.050000 51.840000 49.720001 51.840000 # N 
443 3 5 1.050000 49.720001 51.840000 51.840000 # N 
444 3 4 1.575000 49.720001 49.720001 49.720001 # M 
445 1 1 -1.050000 49.756802 51.803200 49.756802 # 3 
446 1 1 -1.050000 49.756802 49.756802 51.803200 # 3 
447 1 1 -1.050000 51.803200 49.756802 49.756802 # 3 
448 1 1 -1.050000 51.803200 51.803200 51.803200 # 3 
449 1 1 -1.050000 39.156799 45.443199 53.923199 # 3 
450 1 1 -1.050000 45.443199 39.156799 53.923199 # 3 
451 2 2 1.575000 38.060001 38.060001 55.020000 # A 
452 1 1 -1.050000 41.203201 41.203201 56.116798 # 3 
453 1 1 -1.050000 43.396801 43.396801 56.116798 # 3 
454 1 1 -1.050000 45.443199 45.443199 56.116798 # 3 
455 1 1 -1.050000 39.156799 39.156799 56.116798 # 3 
456 2 2 1.575000 42.299999 42.299999 55.020000 # A 
457 1 1 -1.050000 43.396801 41.203201 53.923199 # 3 
458 1 1 -1.050000 41.203201 43.396801 53.923199 # 3 
459 1 1 -1.050000 45.443199 47.636799 53.923199 # 3 
460 2 2 1.575000 38.060001 46.540001 55.020000 # A 
461 1 1 -1.050000 49.683201 36.963200 60.356800 # 3 
462 1 1 -1.050000 39.156799 47.636799 56.116798 # 3 
463 1 1 -1.050000 51.876801 36.963200 58.163200 # 3 
464 1 1 -1.050000 51.876801 47.636799 60.356800 # 3 
465 1 1 -1.050000 39.156799 36.963200 53.923199 # 3 
466 1 1 -1.050000 49.683201 47.636799 58.163200 # 3 
467 1 1 -1.050000 45.443199 36.963200 56.116798 # 3 
468 2 2 1.575000 50.779999 46.540001 59.259998 # A 
469 1 1 -1.050000 47.636799 45.443199 53.923199 # 3 
470 2 2 1.575000 46.540001 38.060001 55.020000 # A 
471 1 1 -1.050000 41.203201 51.876801 53.923199 # 3 
472 1 1 -1.050000 47.636799 39.156799 56.116798 # 3 
473 1 1 -1.050000 49.683201 45.443199 60.356800 # 3 
474 1 1 -1.050000 51.876801 39.156799 60.356800 # 3 
475 2 2 1.575000 46.540001 46.540001 55.020000 # A 
476 1 1 -1.050000 47.636799 47.636799 56.116798 # 3 
477 1 1 -1.050000 51.876801 45.443199 58.163200 # 3 
478 1 1 -1.050000 49.683201 39.156799 58.163200 # 3 
479 1 1 -1.050000 47.636799 36.963200 53.923199 # 3 
480 2 2 1.575000 50.779999 38.060001 59.259998 # A 
481 1 1 -1.050000 36.963200 39.156799 53.923199 # 3 
482 1 1 -1.050000 41.203201 36.963200 60.356800 # 3 
483 1 1 -1.050000 36.963200 45.443199 56.116798 # 3 
484 1 1 -1.050000 43.396801 36.963200 58.163200 # 3 
485 1 1 -1.050000 36.963200 47.636799 53.923199 # 3 
486 1 1 -1.050000 43.396801 49.683201 53.923199 # 3 
487 1 1 -1.050000 36.963200 36.963200 56.116798 # 3 
488 1 1 -1.050000 43.396801 47.636799 60.356800 # 3 
489 1 1 -1.050000 51.803200 51.803200 60.283199 # 3 
490 3 4 1.575000 39.119999 39.119999 58.200001 # M 
491 3 4 1.575000 37.000000 39.119999 60.320000 # M 
492 3 4 1.575000 39.119999 37.000000 60.320000 # M 
493 3 4 1.575000 37.000000 37.000000 58.200001 # M 
494 1 1 -1.050000 39.083199 39.083199 60.283199 # 3 
495 1 1 -1.050000 39.083199 37.036800 58.236801 # 3 
496 1 1 -1.050000 37.036800 37.036800 60.283199 # 3 
497 1 1 -1.050000 37.036800 39.083199 58.236801 # 3 
498 1 1 -1.050000 51.803200 49.756802 58.236801 # 3 
499 1 1 -1.050000 49.756802 49.756802 60.283199 # 3 
500 1 1 -1.050000 49.756802 51.803200 58.236801 # 3 
501 3 4 1.575000 49.720001 49.720001 58.200001 # M 
502 3 4 1.575000 49.720001 51.840000 60.320000 # M 
503 1 1 -1.050000 41.203201 47.636799 58.163200 # 3 
504 2 2 1.575000 42.299999 46.540001 59.259998 # A 
505 2 2 1.575000 42.299999 50.779999 55.020000 # A 
506 1 1 -1.050000 41.203201 45.443199 60.356800 # 3 
507 3 4 1.575000 51.840000 49.720001 60.320000 # M 
508 3 4 1.575000 39.119999 47.599998 58.200001 # M 
509 3 4 1.575000 37.000000 47.599998 60.320000 # M 
510 3 4 1.575000 39.119999 45.480000 60.320000 # M 
511 3 4 1.575000 37.000000 45.480000 58.200001 # M 
512 1 1 -1.050000 39.083199 47.563202 60.283199 # 3 
513 1 1 -1.050000 39.083199 45.516800 58.236801 # 3 
514 1 1 -1.050000 37.036800 45.516800 60.283199 # 3 
515 1 1 -1.050000 37.036800 47.563202 58.236801 # 3 
516 3 4 1.575000 51.840000 51.840000 58.200001 # M 
517 1 1 -1.050000 43.396801 39.156799 60.356800 # 3 
518 1 1 -1.050000 43.396801 45.443199 58.163200 # 3 
519 1 1 -1.050000 41.203201 39.156799 58.163200 # 3 
520 2 2 1.575000 42.299999 38.060001 59.259998 # A 
521 1 1 -1.050000 43.396801 51.876801 56.116798 # 3 
522 1 1 -1.050000 41.203201 49.683201 56.116798 # 3 
523 1 1 -1.050000 49.756802 45.516800 56.043201 # 3 
524 1 1 -1.050000 49.756802 47.563202 53.996799 # 3 
525 1 1 -1.050000 51.803200 43.323200 60.283199 # 3 
526 3 4 1.575000 47.599998 39.119999 58.200001 # M 
527 3 4 1.575000 45.480000 39.119999 60.320000 # M 
528 3 4 1.575000 47.599998 37.000000 60.320000 # M 
529 3 4 1.575000 45.480000 37.000000 58.200001 # M 
530 1 1 -1.050000 47.563202 39.083199 60.283199 # 3 
531 1 1 -1.050000 47.563202 37.036800 58.236801 # 3 
532 1 1 -1.050000 45.516800 37.036800 60.283199 # 3 
533 1 1 -1.050000 45.516800 39.083199 58.236801 # 3 
534 1 1 -1.050000 51.803200 41.276798 58.236801 # 3 
535 1 1 -1.050000 49.756802 41.276798 60.283199 # 3 
536 1 1 -1.050000 49.756802 43.323200 58.236801 # 3 
537 3 4 1.575000 49.720001 41.240002 58.200001 # M 
538 3 4 1.575000 49.720001 43.360001 60.320000 # M 
539 1 1 -1.050000 51.803200 47.563202 56.043201 # 3 
540 1 1 -1.050000 51.803200 45.516800 53.996799 # 3 
541 3 4 1.575000 51.840000 47.599998 53.959999 # M 
542 3 4 1.575000 51.840000 45.480000 56.080002 # M 
543 3 4 1.575000 51.840000 41.240002 60.320000 # M 
544 3 5 1.050000 47.599998 47.599998 58.200001 # N 
545 3 4 1.575000 45.480000 47.599998 60.320000 # M 
546 3 4 1.575000 47.599998 45.480000 60.320000 # M 
547 3 4 1.575000 45.480000 45.480000 58.200001 # M 
548 1 1 -1.050000 47.563202 47.563202 60.283199 # 3 
549 1 1 -1.050000 47.563202 45.516800 58.236801 # 3 
550 1 1 -1.050000 45.516800 45.516800 60.283199 # 3 
551 1 1 -1.050000 45.516800 47.563202 58.236801 # 3 
552 3 4 1.575000 51.840000 43.360001 58.200001 # M 
553 3 5 1.050000 49.720001 47.599998 56.080002 # N 
554 3 5 1.050000 49.720001 45.480000 53.959999 # N 
555 2 2 1.575000 52.900002 48.660000 57.139999 # A 
556 1 1 -1.050000 49.683201 43.396801 53.923199 # 3 
557 1 1 -1.050000 51.876801 41.203201 53.923199 # 3 
558 2 2 1.575000 50.779999 42.299999 55.020000 # A 
559 1 1 -1.050000 51.876801 43.396801 56.116798 # 3 
560 1 1 -1.050000 49.756802 37.036800 56.043201 # 3 
561 2 2 1.575000 40.180000 44.419998 57.139999 # A 
562 3 4 1.575000 39.119999 41.240002 56.080002 # M 
563 3 4 1.575000 37.000000 43.360001 56.080002 # M 