LAMMPS data file. CGCMM style. atom_style charge generated by VMD/TopoTools v1.7 on Wed May 27 18:50:29 CEST 2020
 1466 atoms
 0 bonds
 0 angles
 0 dihedrals
 0 impropers
 3 atom types
 0 bond types
 0 angle types
 0 dihedral types
 0 improper types
 -2.220001 99.540001  xlo xhi
 -2.220001 99.540001  ylo yhi
 -2.220001 99.540001  zlo zhi

 Masses

1 55.845
2 55.845
3 15.9994

 Pair Coeffs # lj/cut/coul/long

1 9.0298e-07 4.9062
2 9.0298e-07 4.9062
3 0.1554 3.16554

 Atoms # charge

1 0 1 1.575000 38.059998 38.059998 38.059998 # 1
2 0 3 -1.050000 39.156837 45.443165 45.443165 # 3
3 0 3 -1.050000 45.443165 39.156837 45.443165 # 3
4 0 3 -1.050000 45.443165 45.443165 39.156837 # 3
5 0 3 -1.050000 39.156837 39.156837 39.156837 # 3
6 0 1 1.575000 38.059998 38.059998 46.540001 # 1
7 0 3 -1.050000 45.443165 45.443165 47.636833 # 3
8 0 3 -1.050000 39.156837 39.156837 47.636833 # 3
9 0 3 -1.050000 39.156837 45.443165 36.963165 # 3
10 0 3 -1.050000 45.443165 39.156837 36.963165 # 3
11 0 1 1.575000 38.059998 46.540001 38.059998 # 1
12 0 3 -1.050000 45.443165 47.636833 45.443165 # 3
13 0 3 -1.050000 39.156837 47.636833 39.156837 # 3
14 0 1 1.575000 38.059998 46.540001 46.540001 # 1
15 0 3 -1.050000 39.156837 47.636833 47.636833 # 3
16 0 3 -1.050000 45.443165 47.636833 36.963165 # 3
17 0 3 -1.050000 39.156837 36.963165 45.443165 # 3
18 0 3 -1.050000 45.443165 36.963165 39.156837 # 3
19 0 3 -1.050000 45.443165 36.963165 47.636833 # 3
20 0 3 -1.050000 39.156837 36.963165 36.963165 # 3
21 0 1 1.575000 46.540001 38.059998 38.059998 # 1
22 0 3 -1.050000 47.636833 45.443165 45.443165 # 3
23 0 3 -1.050000 47.636833 39.156837 39.156837 # 3
24 0 1 1.575000 46.540001 38.059998 46.540001 # 1
25 0 3 -1.050000 47.636833 39.156837 47.636833 # 3
26 0 3 -1.050000 47.636833 45.443165 36.963165 # 3
27 0 1 1.575000 46.540001 46.540001 38.059998 # 1
28 0 3 -1.050000 47.636833 47.636833 39.156837 # 3
29 0 1 1.575000 46.540001 46.540001 46.540001 # 1
30 0 3 -1.050000 47.636833 47.636833 47.636833 # 3
31 0 3 -1.050000 47.636833 36.963165 45.443165 # 3
32 0 3 -1.050000 47.636833 36.963165 36.963165 # 3
33 0 3 -1.050000 36.963165 39.156837 45.443165 # 3
34 0 3 -1.050000 36.963165 45.443165 39.156837 # 3
35 0 3 -1.050000 36.963165 45.443165 47.636833 # 3
36 0 3 -1.050000 36.963165 39.156837 36.963165 # 3
37 0 3 -1.050000 36.963165 47.636833 45.443165 # 3
38 0 3 -1.050000 36.963165 47.636833 36.963165 # 3
39 0 3 -1.050000 36.963165 36.963165 39.156837 # 3
40 0 3 -1.050000 36.963165 36.963165 47.636833 # 3
41 0 1 1.575000 40.180000 40.180000 44.419998 # 1
42 0 2 1.050000 39.119999 39.119999 41.239998 # 2
43 0 1 1.575000 37.000000 39.119999 43.360001 # 1
44 0 1 1.575000 39.119999 37.000000 43.360001 # 1
45 0 1 1.575000 37.000000 37.000000 41.239998 # 1
46 0 3 -1.050000 39.083164 39.083164 43.323166 # 3
47 0 3 -1.050000 39.083164 37.036835 41.276833 # 3
48 0 3 -1.050000 37.036835 37.036835 43.323166 # 3
49 0 3 -1.050000 37.036835 39.083164 41.276833 # 3
50 0 1 1.575000 40.180000 40.180000 52.900002 # 1
51 0 1 1.575000 39.119999 39.119999 49.720001 # 1
52 0 2 1.050000 37.000000 39.119999 51.840000 # 2
53 0 1 1.575000 39.119999 37.000000 51.840000 # 1
54 0 1 1.575000 37.000000 37.000000 49.720001 # 1
55 0 3 -1.050000 39.083164 39.083164 51.803165 # 3
56 0 3 -1.050000 39.083164 37.036835 49.756836 # 3
57 0 3 -1.050000 37.036835 37.036835 51.803165 # 3
58 0 3 -1.050000 37.036835 39.083164 49.756836 # 3
59 0 1 1.575000 40.180000 48.660000 44.419998 # 1
60 0 1 1.575000 39.119999 47.599998 41.239998 # 1
61 0 1 1.575000 37.000000 47.599998 43.360001 # 1
62 0 1 1.575000 39.119999 45.480000 43.360001 # 1
63 0 1 1.575000 37.000000 45.480000 41.239998 # 1
64 0 3 -1.050000 39.083164 47.563164 43.323166 # 3
65 0 3 -1.050000 39.083164 45.516834 41.276833 # 3
66 0 3 -1.050000 37.036835 45.516834 43.323166 # 3
67 0 3 -1.050000 37.036835 47.563164 41.276833 # 3
68 0 1 1.575000 40.180000 48.660000 52.900002 # 1
69 0 1 1.575000 39.119999 47.599998 49.720001 # 1
70 0 2 1.050000 37.000000 47.599998 51.840000 # 2
71 0 2 1.050000 39.119999 45.480000 51.840000 # 2
72 0 1 1.575000 37.000000 45.480000 49.720001 # 1
73 0 3 -1.050000 39.083164 47.563164 51.803165 # 3
74 0 3 -1.050000 39.083164 45.516834 49.756836 # 3
75 0 3 -1.050000 37.036835 45.516834 51.803165 # 3
76 0 3 -1.050000 37.036835 47.563164 49.756836 # 3
77 0 1 1.575000 48.660000 40.180000 44.419998 # 1
78 0 1 1.575000 47.599998 39.119999 41.239998 # 1
79 0 1 1.575000 45.480000 39.119999 43.360001 # 1
80 0 1 1.575000 47.599998 37.000000 43.360001 # 1
81 0 1 1.575000 45.480000 37.000000 41.239998 # 1
82 0 3 -1.050000 47.563164 39.083164 43.323166 # 3
83 0 3 -1.050000 47.563164 37.036835 41.276833 # 3
84 0 3 -1.050000 45.516834 37.036835 43.323166 # 3
85 0 3 -1.050000 45.516834 39.083164 41.276833 # 3
86 0 1 1.575000 48.660000 40.180000 52.900002 # 1
87 0 1 1.575000 47.599998 39.119999 49.720001 # 1
88 0 1 1.575000 45.480000 39.119999 51.840000 # 1
89 0 2 1.050000 47.599998 37.000000 51.840000 # 2
90 0 1 1.575000 45.480000 37.000000 49.720001 # 1
91 0 3 -1.050000 47.563164 39.083164 51.803165 # 3
92 0 3 -1.050000 47.563164 37.036835 49.756836 # 3
93 0 3 -1.050000 45.516834 37.036835 51.803165 # 3
94 0 3 -1.050000 45.516834 39.083164 49.756836 # 3
95 0 1 1.575000 48.660000 48.660000 44.419998 # 1
96 0 1 1.575000 47.599998 47.599998 41.239998 # 1
97 0 1 1.575000 45.480000 47.599998 43.360001 # 1
98 0 2 1.050000 47.599998 45.480000 43.360001 # 2
99 0 1 1.575000 45.480000 45.480000 41.239998 # 1
100 0 3 -1.050000 47.563164 47.563164 43.323166 # 3
101 0 3 -1.050000 47.563164 45.516834 41.276833 # 3
102 0 3 -1.050000 45.516834 45.516834 43.323166 # 3
103 0 3 -1.050000 45.516834 47.563164 41.276833 # 3
104 0 1 1.575000 48.660000 48.660000 52.900002 # 1
105 0 1 1.575000 47.599998 47.599998 49.720001 # 1
106 0 1 1.575000 45.480000 47.599998 51.840000 # 1
107 0 1 1.575000 47.599998 45.480000 51.840000 # 1
108 0 1 1.575000 45.480000 45.480000 49.720001 # 1
109 0 3 -1.050000 47.563164 47.563164 51.803165 # 3
110 0 3 -1.050000 47.563164 45.516834 49.756836 # 3
111 0 3 -1.050000 45.516834 45.516834 51.803165 # 3
112 0 3 -1.050000 45.516834 47.563164 49.756836 # 3
113 0 1 1.575000 40.180000 44.419998 40.180000 # 1
114 0 2 1.050000 39.119999 41.239998 39.119999 # 2
115 0 1 1.575000 37.000000 43.360001 39.119999 # 1
116 0 1 1.575000 37.000000 41.239998 37.000000 # 1
117 0 1 1.575000 39.119999 43.360001 37.000000 # 1
118 0 3 -1.050000 37.036835 41.276833 39.083164 # 3
119 0 3 -1.050000 37.036835 43.323166 37.036835 # 3
120 0 3 -1.050000 39.083164 43.323166 39.083164 # 3
121 0 3 -1.050000 39.083164 41.276833 37.036835 # 3
122 0 1 1.575000 40.180000 44.419998 48.660000 # 1
123 0 1 1.575000 39.119999 41.239998 47.599998 # 1
124 0 1 1.575000 37.000000 43.360001 47.599998 # 1
125 0 1 1.575000 37.000000 41.239998 45.480000 # 1
126 0 1 1.575000 39.119999 43.360001 45.480000 # 1
127 0 3 -1.050000 37.036835 41.276833 47.563164 # 3
128 0 3 -1.050000 37.036835 43.323166 45.516834 # 3
129 0 3 -1.050000 39.083164 43.323166 47.563164 # 3
130 0 3 -1.050000 39.083164 41.276833 45.516834 # 3
131 0 1 1.575000 40.180000 52.900002 40.180000 # 1
132 0 2 1.050000 39.119999 49.720001 39.119999 # 2
133 0 1 1.575000 37.000000 51.840000 39.119999 # 1
134 0 1 1.575000 37.000000 49.720001 37.000000 # 1
135 0 1 1.575000 39.119999 51.840000 37.000000 # 1
136 0 3 -1.050000 37.036835 49.756836 39.083164 # 3
137 0 3 -1.050000 37.036835 51.803165 37.036835 # 3
138 0 3 -1.050000 39.083164 51.803165 39.083164 # 3
139 0 3 -1.050000 39.083164 49.756836 37.036835 # 3
140 0 1 1.575000 40.180000 52.900002 48.660000 # 1
141 0 1 1.575000 39.119999 49.720001 47.599998 # 1
142 0 1 1.575000 37.000000 51.840000 47.599998 # 1
143 0 2 1.050000 37.000000 49.720001 45.480000 # 2
144 0 1 1.575000 39.119999 51.840000 45.480000 # 1
145 0 3 -1.050000 37.036835 49.756836 47.563164 # 3
146 0 3 -1.050000 37.036835 51.803165 45.516834 # 3
147 0 3 -1.050000 39.083164 51.803165 47.563164 # 3
148 0 3 -1.050000 39.083164 49.756836 45.516834 # 3
149 0 1 1.575000 48.660000 44.419998 40.180000 # 1
150 0 1 1.575000 47.599998 41.239998 39.119999 # 1
151 0 2 1.050000 45.480000 43.360001 39.119999 # 2
152 0 1 1.575000 45.480000 41.239998 37.000000 # 1
153 0 1 1.575000 47.599998 43.360001 37.000000 # 1
154 0 3 -1.050000 45.516834 41.276833 39.083164 # 3
155 0 3 -1.050000 45.516834 43.323166 37.036835 # 3
156 0 3 -1.050000 47.563164 43.323166 39.083164 # 3
157 0 3 -1.050000 47.563164 41.276833 37.036835 # 3
158 0 1 1.575000 48.660000 44.419998 48.660000 # 1
159 0 1 1.575000 47.599998 41.239998 47.599998 # 1
160 0 2 1.050000 45.480000 43.360001 47.599998 # 2
161 0 1 1.575000 45.480000 41.239998 45.480000 # 1
162 0 1 1.575000 47.599998 43.360001 45.480000 # 1
163 0 3 -1.050000 45.516834 41.276833 47.563164 # 3
164 0 3 -1.050000 45.516834 43.323166 45.516834 # 3
165 0 3 -1.050000 47.563164 43.323166 47.563164 # 3
166 0 3 -1.050000 47.563164 41.276833 45.516834 # 3
167 0 1 1.575000 48.660000 52.900002 40.180000 # 1
168 0 1 1.575000 47.599998 49.720001 39.119999 # 1
169 0 1 1.575000 45.480000 51.840000 39.119999 # 1
170 0 1 1.575000 45.480000 49.720001 37.000000 # 1
171 0 1 1.575000 47.599998 51.840000 37.000000 # 1
172 0 3 -1.050000 45.516834 49.756836 39.083164 # 3
173 0 3 -1.050000 45.516834 51.803165 37.036835 # 3
174 0 3 -1.050000 47.563164 51.803165 39.083164 # 3
175 0 3 -1.050000 47.563164 49.756836 37.036835 # 3
176 0 1 1.575000 48.660000 52.900002 48.660000 # 1
177 0 1 1.575000 47.599998 49.720001 47.599998 # 1
178 0 2 1.050000 45.480000 51.840000 47.599998 # 2
179 0 1 1.575000 45.480000 49.720001 45.480000 # 1
180 0 2 1.050000 47.599998 51.840000 45.480000 # 2
181 0 3 -1.050000 45.516834 49.756836 47.563164 # 3
182 0 3 -1.050000 45.516834 51.803165 45.516834 # 3
183 0 3 -1.050000 47.563164 51.803165 47.563164 # 3
184 0 3 -1.050000 47.563164 49.756836 45.516834 # 3
185 0 1 1.575000 38.059998 42.299999 42.299999 # 1
186 0 3 -1.050000 45.443165 41.203163 43.396835 # 3
187 0 3 -1.050000 39.156837 43.396835 43.396835 # 3
188 0 3 -1.050000 39.156837 41.203163 41.203163 # 3
189 0 3 -1.050000 45.443165 43.396835 41.203163 # 3
190 0 1 1.575000 38.059998 42.299999 50.779999 # 1
191 0 3 -1.050000 45.443165 41.203163 51.876835 # 3
192 0 3 -1.050000 39.156837 43.396835 51.876835 # 3
193 0 3 -1.050000 39.156837 41.203163 49.683167 # 3
194 0 3 -1.050000 45.443165 43.396835 49.683167 # 3
195 0 1 1.575000 38.059998 50.779999 42.299999 # 1
196 0 3 -1.050000 45.443165 49.683167 43.396835 # 3
197 0 3 -1.050000 39.156837 51.876835 43.396835 # 3
198 0 3 -1.050000 39.156837 49.683167 41.203163 # 3
199 0 3 -1.050000 45.443165 51.876835 41.203163 # 3
200 0 1 1.575000 38.059998 50.779999 50.779999 # 1
201 0 3 -1.050000 45.443165 49.683167 51.876835 # 3
202 0 3 -1.050000 39.156837 51.876835 51.876835 # 3
203 0 3 -1.050000 39.156837 49.683167 49.683167 # 3
204 0 3 -1.050000 45.443165 51.876835 49.683167 # 3
205 0 1 1.575000 46.540001 42.299999 42.299999 # 1
206 0 3 -1.050000 47.636833 43.396835 43.396835 # 3
207 0 3 -1.050000 47.636833 41.203163 41.203163 # 3
208 0 1 1.575000 46.540001 42.299999 50.779999 # 1
209 0 3 -1.050000 47.636833 43.396835 51.876835 # 3
210 0 3 -1.050000 47.636833 41.203163 49.683167 # 3
211 0 1 1.575000 46.540001 50.779999 42.299999 # 1
212 0 3 -1.050000 47.636833 51.876835 43.396835 # 3
213 0 3 -1.050000 47.636833 49.683167 41.203163 # 3
214 0 1 1.575000 46.540001 50.779999 50.779999 # 1
215 0 3 -1.050000 47.636833 51.876835 51.876835 # 3
216 0 3 -1.050000 47.636833 49.683167 49.683167 # 3
217 0 3 -1.050000 36.963165 41.203163 43.396835 # 3
218 0 3 -1.050000 36.963165 43.396835 41.203163 # 3
219 0 3 -1.050000 36.963165 41.203163 51.876835 # 3
220 0 3 -1.050000 36.963165 43.396835 49.683167 # 3
221 0 3 -1.050000 36.963165 49.683167 43.396835 # 3
222 0 3 -1.050000 36.963165 51.876835 41.203163 # 3
223 0 3 -1.050000 36.963165 49.683167 51.876835 # 3
224 0 3 -1.050000 36.963165 51.876835 49.683167 # 3
225 0 1 1.575000 44.419998 40.180000 40.180000 # 1
226 0 1 1.575000 41.239998 37.000000 37.000000 # 1
227 0 1 1.575000 41.239998 39.119999 39.119999 # 1
228 0 1 1.575000 43.360001 37.000000 39.119999 # 1
229 0 1 1.575000 43.360001 39.119999 37.000000 # 1
230 0 3 -1.050000 43.323166 37.036835 37.036835 # 3
231 0 3 -1.050000 43.323166 39.083164 39.083164 # 3
232 0 3 -1.050000 41.276833 39.083164 37.036835 # 3
233 0 3 -1.050000 41.276833 37.036835 39.083164 # 3
234 0 1 1.575000 44.419998 40.180000 48.660000 # 1
235 0 1 1.575000 41.239998 37.000000 45.480000 # 1
236 0 1 1.575000 41.239998 39.119999 47.599998 # 1
237 0 2 1.050000 43.360001 37.000000 47.599998 # 2
238 0 1 1.575000 43.360001 39.119999 45.480000 # 1
239 0 3 -1.050000 43.323166 37.036835 45.516834 # 3
240 0 3 -1.050000 43.323166 39.083164 47.563164 # 3
241 0 3 -1.050000 41.276833 39.083164 45.516834 # 3
242 0 3 -1.050000 41.276833 37.036835 47.563164 # 3
243 0 1 1.575000 44.419998 48.660000 40.180000 # 1
244 0 1 1.575000 41.239998 45.480000 37.000000 # 1
245 0 1 1.575000 41.239998 47.599998 39.119999 # 1
246 0 1 1.575000 43.360001 45.480000 39.119999 # 1
247 0 1 1.575000 43.360001 47.599998 37.000000 # 1
248 0 3 -1.050000 43.323166 45.516834 37.036835 # 3
249 0 3 -1.050000 43.323166 47.563164 39.083164 # 3
250 0 3 -1.050000 41.276833 47.563164 37.036835 # 3
251 0 3 -1.050000 41.276833 45.516834 39.083164 # 3
252 0 1 1.575000 44.419998 48.660000 48.660000 # 1
253 0 1 1.575000 41.239998 45.480000 45.480000 # 1
254 0 1 1.575000 41.239998 47.599998 47.599998 # 1
255 0 1 1.575000 43.360001 45.480000 47.599998 # 1
256 0 1 1.575000 43.360001 47.599998 45.480000 # 1
257 0 3 -1.050000 43.323166 45.516834 45.516834 # 3
258 0 3 -1.050000 43.323166 47.563164 47.563164 # 3
259 0 3 -1.050000 41.276833 47.563164 45.516834 # 3
260 0 3 -1.050000 41.276833 45.516834 47.563164 # 3
261 0 1 1.575000 52.900002 40.180000 40.180000 # 1
262 0 1 1.575000 49.720001 37.000000 37.000000 # 1
263 0 1 1.575000 49.720001 39.119999 39.119999 # 1
264 0 1 1.575000 51.840000 37.000000 39.119999 # 1
265 0 1 1.575000 51.840000 39.119999 37.000000 # 1
266 0 3 -1.050000 51.803165 37.036835 37.036835 # 3
267 0 3 -1.050000 51.803165 39.083164 39.083164 # 3
268 0 3 -1.050000 49.756836 39.083164 37.036835 # 3
269 0 3 -1.050000 49.756836 37.036835 39.083164 # 3
270 0 1 1.575000 52.900002 40.180000 48.660000 # 1
271 0 1 1.575000 49.720001 37.000000 45.480000 # 1
272 0 1 1.575000 49.720001 39.119999 47.599998 # 1
273 0 2 1.050000 51.840000 37.000000 47.599998 # 2
274 0 1 1.575000 51.840000 39.119999 45.480000 # 1
275 0 3 -1.050000 51.803165 37.036835 45.516834 # 3
276 0 3 -1.050000 51.803165 39.083164 47.563164 # 3
277 0 3 -1.050000 49.756836 39.083164 45.516834 # 3
278 0 3 -1.050000 49.756836 37.036835 47.563164 # 3
279 0 1 1.575000 52.900002 48.660000 40.180000 # 1
280 0 2 1.050000 49.720001 45.480000 37.000000 # 2
281 0 1 1.575000 49.720001 47.599998 39.119999 # 1
282 0 1 1.575000 51.840000 45.480000 39.119999 # 1
283 0 2 1.050000 51.840000 47.599998 37.000000 # 2
284 0 3 -1.050000 51.803165 45.516834 37.036835 # 3
285 0 3 -1.050000 51.803165 47.563164 39.083164 # 3
286 0 3 -1.050000 49.756836 47.563164 37.036835 # 3
287 0 3 -1.050000 49.756836 45.516834 39.083164 # 3
288 0 1 1.575000 52.900002 48.660000 48.660000 # 1
289 0 2 1.050000 49.720001 45.480000 45.480000 # 2
290 0 1 1.575000 49.720001 47.599998 47.599998 # 1
291 0 1 1.575000 51.840000 45.480000 47.599998 # 1
292 0 1 1.575000 51.840000 47.599998 45.480000 # 1
293 0 3 -1.050000 51.803165 45.516834 45.516834 # 3
294 0 3 -1.050000 51.803165 47.563164 47.563164 # 3
295 0 3 -1.050000 49.756836 47.563164 45.516834 # 3
296 0 3 -1.050000 49.756836 45.516834 47.563164 # 3
297 0 1 1.575000 42.299999 38.059998 42.299999 # 1
298 0 3 -1.050000 41.203163 39.156837 41.203163 # 3
299 0 3 -1.050000 43.396835 45.443165 41.203163 # 3
300 0 3 -1.050000 43.396835 39.156837 43.396835 # 3
301 0 3 -1.050000 41.203163 45.443165 43.396835 # 3
302 0 1 1.575000 42.299999 38.059998 50.779999 # 1
303 0 3 -1.050000 41.203163 39.156837 49.683167 # 3
304 0 3 -1.050000 43.396835 45.443165 49.683167 # 3
305 0 3 -1.050000 43.396835 39.156837 51.876835 # 3
306 0 3 -1.050000 41.203163 45.443165 51.876835 # 3
307 0 1 1.575000 42.299999 46.540001 42.299999 # 1
308 0 3 -1.050000 41.203163 47.636833 41.203163 # 3
309 0 3 -1.050000 43.396835 47.636833 43.396835 # 3
310 0 1 1.575000 42.299999 46.540001 50.779999 # 1
311 0 3 -1.050000 41.203163 47.636833 49.683167 # 3
312 0 3 -1.050000 43.396835 47.636833 51.876835 # 3
313 0 3 -1.050000 43.396835 36.963165 41.203163 # 3
314 0 3 -1.050000 41.203163 36.963165 43.396835 # 3
315 0 3 -1.050000 43.396835 36.963165 49.683167 # 3
316 0 3 -1.050000 41.203163 36.963165 51.876835 # 3
317 0 1 1.575000 50.779999 38.059998 42.299999 # 1
318 0 3 -1.050000 49.683167 39.156837 41.203163 # 3
319 0 3 -1.050000 51.876835 45.443165 41.203163 # 3
320 0 3 -1.050000 51.876835 39.156837 43.396835 # 3
321 0 3 -1.050000 49.683167 45.443165 43.396835 # 3
322 0 1 1.575000 50.779999 38.059998 50.779999 # 1
323 0 3 -1.050000 49.683167 39.156837 49.683167 # 3
324 0 3 -1.050000 51.876835 45.443165 49.683167 # 3
325 0 3 -1.050000 51.876835 39.156837 51.876835 # 3
326 0 3 -1.050000 49.683167 45.443165 51.876835 # 3
327 0 1 1.575000 50.779999 46.540001 42.299999 # 1
328 0 3 -1.050000 49.683167 47.636833 41.203163 # 3
329 0 3 -1.050000 51.876835 47.636833 43.396835 # 3
330 0 1 1.575000 50.779999 46.540001 50.779999 # 1
331 0 3 -1.050000 49.683167 47.636833 49.683167 # 3
332 0 3 -1.050000 51.876835 47.636833 51.876835 # 3
333 0 3 -1.050000 51.876835 36.963165 41.203163 # 3
334 0 3 -1.050000 49.683167 36.963165 43.396835 # 3
335 0 3 -1.050000 51.876835 36.963165 49.683167 # 3
336 0 3 -1.050000 49.683167 36.963165 51.876835 # 3
337 0 1 1.575000 42.299999 42.299999 38.059998 # 1
338 0 3 -1.050000 43.396835 43.396835 39.156837 # 3
339 0 3 -1.050000 41.203163 41.203163 39.156837 # 3
340 0 3 -1.050000 41.203163 43.396835 45.443165 # 3
341 0 3 -1.050000 43.396835 41.203163 45.443165 # 3
342 0 1 1.575000 42.299999 42.299999 46.540001 # 1
343 0 3 -1.050000 43.396835 43.396835 47.636833 # 3
344 0 3 -1.050000 41.203163 41.203163 47.636833 # 3
345 0 3 -1.050000 41.203163 43.396835 36.963165 # 3
346 0 3 -1.050000 43.396835 41.203163 36.963165 # 3
347 0 1 1.575000 42.299999 50.779999 38.059998 # 1
348 0 3 -1.050000 43.396835 51.876835 39.156837 # 3
349 0 3 -1.050000 41.203163 49.683167 39.156837 # 3
350 0 3 -1.050000 41.203163 51.876835 45.443165 # 3
351 0 3 -1.050000 43.396835 49.683167 45.443165 # 3
352 0 1 1.575000 42.299999 50.779999 46.540001 # 1
353 0 3 -1.050000 43.396835 51.876835 47.636833 # 3
354 0 3 -1.050000 41.203163 49.683167 47.636833 # 3
355 0 3 -1.050000 41.203163 51.876835 36.963165 # 3
356 0 3 -1.050000 43.396835 49.683167 36.963165 # 3
357 0 1 1.575000 50.779999 42.299999 38.059998 # 1
358 0 3 -1.050000 51.876835 43.396835 39.156837 # 3
359 0 3 -1.050000 49.683167 41.203163 39.156837 # 3
360 0 3 -1.050000 49.683167 43.396835 45.443165 # 3
361 0 3 -1.050000 51.876835 41.203163 45.443165 # 3
362 0 1 1.575000 50.779999 42.299999 46.540001 # 1
363 0 3 -1.050000 51.876835 43.396835 47.636833 # 3
364 0 3 -1.050000 49.683167 41.203163 47.636833 # 3
365 0 3 -1.050000 49.683167 43.396835 36.963165 # 3
366 0 3 -1.050000 51.876835 41.203163 36.963165 # 3
367 0 1 1.575000 50.779999 50.779999 38.059998 # 1
368 0 3 -1.050000 51.876835 51.876835 39.156837 # 3
369 0 3 -1.050000 49.683167 49.683167 39.156837 # 3
370 0 3 -1.050000 49.683167 51.876835 45.443165 # 3
371 0 3 -1.050000 51.876835 49.683167 45.443165 # 3
372 0 1 1.575000 50.779999 50.779999 46.540001 # 1
373 0 3 -1.050000 51.876835 51.876835 47.636833 # 3
374 0 3 -1.050000 49.683167 49.683167 47.636833 # 3
375 0 3 -1.050000 49.683167 51.876835 36.963165 # 3
376 0 3 -1.050000 51.876835 49.683167 36.963165 # 3
377 0 1 1.575000 44.419998 44.419998 44.419998 # 1
378 0 2 1.050000 43.360001 43.360001 41.239998 # 2
379 0 1 1.575000 43.360001 41.239998 43.360001 # 1
380 0 1 1.575000 41.239998 43.360001 43.360001 # 1
381 0 1 1.575000 41.239998 41.239998 41.239998 # 1
382 0 3 -1.050000 41.276833 43.323166 41.276833 # 3
383 0 3 -1.050000 41.276833 41.276833 43.323166 # 3
384 0 3 -1.050000 43.323166 41.276833 41.276833 # 3
385 0 3 -1.050000 43.323166 43.323166 43.323166 # 3
386 0 1 1.575000 44.419998 44.419998 52.900002 # 1
387 0 1 1.575000 43.360001 43.360001 49.720001 # 1
388 0 1 1.575000 43.360001 41.239998 51.840000 # 1
389 0 1 1.575000 41.239998 43.360001 51.840000 # 1
390 0 1 1.575000 41.239998 41.239998 49.720001 # 1
391 0 3 -1.050000 41.276833 43.323166 49.756836 # 3
392 0 3 -1.050000 41.276833 41.276833 51.803165 # 3
393 0 3 -1.050000 43.323166 41.276833 49.756836 # 3
394 0 3 -1.050000 43.323166 43.323166 51.803165 # 3
395 0 1 1.575000 44.419998 52.900002 44.419998 # 1
396 0 1 1.575000 43.360001 51.840000 41.239998 # 1
397 0 1 1.575000 43.360001 49.720001 43.360001 # 1
398 0 2 1.050000 41.239998 51.840000 43.360001 # 2
399 0 1 1.575000 41.239998 49.720001 41.239998 # 1
400 0 3 -1.050000 41.276833 51.803165 41.276833 # 3
401 0 3 -1.050000 41.276833 49.756836 43.323166 # 3
402 0 3 -1.050000 43.323166 49.756836 41.276833 # 3
403 0 3 -1.050000 43.323166 51.803165 43.323166 # 3
404 0 1 1.575000 44.419998 52.900002 52.900002 # 1
405 0 1 1.575000 43.360001 51.840000 49.720001 # 1
406 0 1 1.575000 43.360001 49.720001 51.840000 # 1
407 0 1 1.575000 41.239998 51.840000 51.840000 # 1
408 0 1 1.575000 41.239998 49.720001 49.720001 # 1
409 0 3 -1.050000 41.276833 51.803165 49.756836 # 3
410 0 3 -1.050000 41.276833 49.756836 51.803165 # 3
411 0 3 -1.050000 43.323166 49.756836 49.756836 # 3
412 0 3 -1.050000 43.323166 51.803165 51.803165 # 3
413 0 1 1.575000 52.900002 44.419998 44.419998 # 1
414 0 1 1.575000 51.840000 43.360001 41.239998 # 1
415 0 2 1.050000 51.840000 41.239998 43.360001 # 2
416 0 1 1.575000 49.720001 43.360001 43.360001 # 1
417 0 2 1.050000 49.720001 41.239998 41.239998 # 2
418 0 3 -1.050000 49.756836 43.323166 41.276833 # 3
419 0 3 -1.050000 49.756836 41.276833 43.323166 # 3
420 0 3 -1.050000 51.803165 41.276833 41.276833 # 3
421 0 3 -1.050000 51.803165 43.323166 43.323166 # 3
422 0 1 1.575000 52.900002 44.419998 52.900002 # 1
423 0 1 1.575000 51.840000 43.360001 49.720001 # 1
424 0 1 1.575000 51.840000 41.239998 51.840000 # 1
425 0 1 1.575000 49.720001 43.360001 51.840000 # 1
426 0 1 1.575000 49.720001 41.239998 49.720001 # 1
427 0 3 -1.050000 49.756836 43.323166 49.756836 # 3
428 0 3 -1.050000 49.756836 41.276833 51.803165 # 3
429 0 3 -1.050000 51.803165 41.276833 49.756836 # 3
430 0 3 -1.050000 51.803165 43.323166 51.803165 # 3
431 0 1 1.575000 52.900002 52.900002 44.419998 # 1
432 0 1 1.575000 51.840000 51.840000 41.239998 # 1
433 0 2 1.050000 51.840000 49.720001 43.360001 # 2
434 0 1 1.575000 49.720001 51.840000 43.360001 # 1
435 0 1 1.575000 49.720001 49.720001 41.239998 # 1
436 0 3 -1.050000 49.756836 51.803165 41.276833 # 3
437 0 3 -1.050000 49.756836 49.756836 43.323166 # 3
438 0 3 -1.050000 51.803165 49.756836 41.276833 # 3
439 0 3 -1.050000 51.803165 51.803165 43.323166 # 3
440 0 1 1.575000 52.900002 52.900002 52.900002 # 1
441 0 1 1.575000 51.840000 51.840000 49.720001 # 1
442 0 1 1.575000 51.840000 49.720001 51.840000 # 1
443 0 1 1.575000 49.720001 51.840000 51.840000 # 1
444 0 2 1.050000 49.720001 49.720001 49.720001 # 2
445 0 3 -1.050000 49.756836 51.803165 49.756836 # 3
446 0 3 -1.050000 49.756836 49.756836 51.803165 # 3
447 0 3 -1.050000 51.803165 49.756836 49.756836 # 3
448 0 3 -1.050000 51.803165 51.803165 51.803165 # 3
449 0 3 -1.050000 39.156837 45.443165 53.923164 # 3
450 0 3 -1.050000 45.443165 39.156837 53.923164 # 3
451 0 1 1.575000 38.059998 38.059998 55.020000 # 1
452 0 3 -1.050000 41.203163 41.203163 56.116837 # 3
453 0 3 -1.050000 43.396835 43.396835 56.116837 # 3
454 0 3 -1.050000 45.443165 45.443165 56.116837 # 3
455 0 3 -1.050000 39.156837 39.156837 56.116837 # 3
456 0 1 1.575000 42.299999 42.299999 55.020000 # 1
457 0 3 -1.050000 43.396835 41.203163 53.923164 # 3
458 0 3 -1.050000 41.203163 43.396835 53.923164 # 3
459 0 3 -1.050000 45.443165 47.636833 53.923164 # 3
460 0 1 1.575000 38.059998 46.540001 55.020000 # 1
461 0 3 -1.050000 49.683167 36.963165 60.356834 # 3
462 0 3 -1.050000 39.156837 47.636833 56.116837 # 3
463 0 3 -1.050000 51.876835 36.963165 58.163162 # 3
464 0 3 -1.050000 51.876835 47.636833 60.356834 # 3
465 0 3 -1.050000 39.156837 36.963165 53.923164 # 3
466 0 3 -1.050000 49.683167 47.636833 58.163162 # 3
467 0 3 -1.050000 45.443165 36.963165 56.116837 # 3
468 0 1 1.575000 50.779999 46.540001 59.260002 # 1
469 0 3 -1.050000 47.636833 45.443165 53.923164 # 3
470 0 1 1.575000 46.540001 38.059998 55.020000 # 1
471 0 3 -1.050000 41.203163 51.876835 53.923164 # 3
472 0 3 -1.050000 47.636833 39.156837 56.116837 # 3
473 0 3 -1.050000 49.683167 45.443165 60.356834 # 3
474 0 3 -1.050000 51.876835 39.156837 60.356834 # 3
475 0 1 1.575000 46.540001 46.540001 55.020000 # 1
476 0 3 -1.050000 47.636833 47.636833 56.116837 # 3
477 0 3 -1.050000 51.876835 45.443165 58.163162 # 3
478 0 3 -1.050000 49.683167 39.156837 58.163162 # 3
479 0 3 -1.050000 47.636833 36.963165 53.923164 # 3
480 0 1 1.575000 50.779999 38.059998 59.260002 # 1
481 0 3 -1.050000 36.963165 39.156837 53.923164 # 3
482 0 3 -1.050000 41.203163 36.963165 60.356834 # 3
483 0 3 -1.050000 36.963165 45.443165 56.116837 # 3
484 0 3 -1.050000 43.396835 36.963165 58.163162 # 3
485 0 3 -1.050000 36.963165 47.636833 53.923164 # 3
486 0 3 -1.050000 43.396835 49.683167 53.923164 # 3
487 0 3 -1.050000 36.963165 36.963165 56.116837 # 3
488 0 3 -1.050000 43.396835 47.636833 60.356834 # 3
489 0 3 -1.050000 51.803165 51.803165 60.283165 # 3
490 0 1 1.575000 39.119999 39.119999 58.200001 # 1
491 0 1 1.575000 37.000000 39.119999 60.320000 # 1
492 0 1 1.575000 39.119999 37.000000 60.320000 # 1
493 0 1 1.575000 37.000000 37.000000 58.200001 # 1
494 0 3 -1.050000 39.083164 39.083164 60.283165 # 3
495 0 3 -1.050000 39.083164 37.036835 58.236835 # 3
496 0 3 -1.050000 37.036835 37.036835 60.283165 # 3
497 0 3 -1.050000 37.036835 39.083164 58.236835 # 3
498 0 3 -1.050000 51.803165 49.756836 58.236835 # 3
499 0 3 -1.050000 49.756836 49.756836 60.283165 # 3
500 0 3 -1.050000 49.756836 51.803165 58.236835 # 3
501 0 2 1.050000 49.720001 49.720001 58.200001 # 2
502 0 1 1.575000 49.720001 51.840000 60.320000 # 1
503 0 3 -1.050000 41.203163 47.636833 58.163162 # 3
504 0 1 1.575000 42.299999 46.540001 59.260002 # 1
505 0 1 1.575000 42.299999 50.779999 55.020000 # 1
506 0 3 -1.050000 41.203163 45.443165 60.356834 # 3
507 0 1 1.575000 51.840000 49.720001 60.320000 # 1
508 0 1 1.575000 39.119999 47.599998 58.200001 # 1
509 0 1 1.575000 37.000000 47.599998 60.320000 # 1
510 0 1 1.575000 39.119999 45.480000 60.320000 # 1
511 0 1 1.575000 37.000000 45.480000 58.200001 # 1
512 0 3 -1.050000 39.083164 47.563164 60.283165 # 3
513 0 3 -1.050000 39.083164 45.516834 58.236835 # 3
514 0 3 -1.050000 37.036835 45.516834 60.283165 # 3
515 0 3 -1.050000 37.036835 47.563164 58.236835 # 3
516 0 1 1.575000 51.840000 51.840000 58.200001 # 1
517 0 3 -1.050000 43.396835 39.156837 60.356834 # 3
518 0 3 -1.050000 43.396835 45.443165 58.163162 # 3
519 0 3 -1.050000 41.203163 39.156837 58.163162 # 3
520 0 1 1.575000 42.299999 38.059998 59.260002 # 1
521 0 3 -1.050000 43.396835 51.876835 56.116837 # 3
522 0 3 -1.050000 41.203163 49.683167 56.116837 # 3
523 0 3 -1.050000 49.756836 45.516834 56.043163 # 3
524 0 3 -1.050000 49.756836 47.563164 53.996834 # 3
525 0 3 -1.050000 51.803165 43.323166 60.283165 # 3
526 0 1 1.575000 47.599998 39.119999 58.200001 # 1
527 0 1 1.575000 45.480000 39.119999 60.320000 # 1
528 0 2 1.050000 47.599998 37.000000 60.320000 # 2
529 0 1 1.575000 45.480000 37.000000 58.200001 # 1
530 0 3 -1.050000 47.563164 39.083164 60.283165 # 3
531 0 3 -1.050000 47.563164 37.036835 58.236835 # 3
532 0 3 -1.050000 45.516834 37.036835 60.283165 # 3
533 0 3 -1.050000 45.516834 39.083164 58.236835 # 3
534 0 3 -1.050000 51.803165 41.276833 58.236835 # 3
535 0 3 -1.050000 49.756836 41.276833 60.283165 # 3
536 0 3 -1.050000 49.756836 43.323166 58.236835 # 3
537 0 1 1.575000 49.720001 41.239998 58.200001 # 1
538 0 1 1.575000 49.720001 43.360001 60.320000 # 1
539 0 3 -1.050000 51.803165 47.563164 56.043163 # 3
540 0 3 -1.050000 51.803165 45.516834 53.996834 # 3
541 0 2 1.050000 51.840000 47.599998 53.959999 # 2
542 0 1 1.575000 51.840000 45.480000 56.079998 # 1
543 0 1 1.575000 51.840000 41.239998 60.320000 # 1
544 0 1 1.575000 47.599998 47.599998 58.200001 # 1
545 0 1 1.575000 45.480000 47.599998 60.320000 # 1
546 0 1 1.575000 47.599998 45.480000 60.320000 # 1
547 0 2 1.050000 45.480000 45.480000 58.200001 # 2
548 0 3 -1.050000 47.563164 47.563164 60.283165 # 3
549 0 3 -1.050000 47.563164 45.516834 58.236835 # 3
550 0 3 -1.050000 45.516834 45.516834 60.283165 # 3
551 0 3 -1.050000 45.516834 47.563164 58.236835 # 3
552 0 2 1.050000 51.840000 43.360001 58.200001 # 2
553 0 2 1.050000 49.720001 47.599998 56.079998 # 2
554 0 2 1.050000 49.720001 45.480000 53.959999 # 2
555 0 1 1.575000 52.900002 48.660000 57.139999 # 1
556 0 3 -1.050000 49.683167 43.396835 53.923164 # 3
557 0 3 -1.050000 51.876835 41.203163 53.923164 # 3
558 0 1 1.575000 50.779999 42.299999 55.020000 # 1
559 0 3 -1.050000 51.876835 43.396835 56.116837 # 3
560 0 3 -1.050000 49.756836 37.036835 56.043163 # 3
561 0 1 1.575000 40.180000 44.419998 57.139999 # 1
562 0 1 1.575000 39.119999 41.239998 56.079998 # 1
563 0 1 1.575000 37.000000 43.360001 56.079998 # 1
564 0 1 1.575000 37.000000 41.239998 53.959999 # 1
565 0 1 1.575000 39.119999 43.360001 53.959999 # 1
566 0 3 -1.050000 37.036835 41.276833 56.043163 # 3
567 0 3 -1.050000 37.036835 43.323166 53.996834 # 3
568 0 3 -1.050000 39.083164 43.323166 56.043163 # 3
569 0 3 -1.050000 39.083164 41.276833 53.996834 # 3
570 0 3 -1.050000 43.323166 51.803165 60.283165 # 3
571 0 3 -1.050000 43.323166 49.756836 58.236835 # 3
572 0 3 -1.050000 41.276833 49.756836 60.283165 # 3
573 0 3 -1.050000 41.276833 51.803165 58.236835 # 3
574 0 2 1.050000 41.239998 49.720001 58.200001 # 2