LAMMPS (17 Feb 2022)
variable rand equal round(random(0,1e7,452345))
variable temp index 1000 999 998 997 996 995 994 993 992 991 990 989 988 987 986 985 984 983 982 981 980 979 978 977 976 975 974 973 972 971 970 969 968 967 966 965 964 963 962 961 960 959 958 957 956 955 954 953 952 951 950 949 948 947 946 945 944 943 942 941 940 939 938 937 936 935 934 933 932 931 930 929 928 927 926 925 924 923 922 921 920 919 918 917 916 915 914 913 912 911 910 909 908 907 906 905 904 903 902 901 900 899 898 897 896 895 894 893 892 891 890 889 888 887 886 885 884 883 882 881 880 879 878 877 876 875 874 873 872 871 870 869 868 867 866 865 864 863 862 861 860 859 858 857 856 855 854 853 852 851 850 849 848 847 846 845 844 843 842 841 840 839 838 837 836 835 834 833 832 831 830 829 828 827 826 825 824 823 822 821 820 819 818 817 816 815 814 813 812 811 810 809 808 807 806 805 804 803 802 801 800 799 798 797 796 795 794 793 792 791 790 789 788 787 786 785 784 783 782 781 780 779 778 777 776 775 774 773 772 771 770 769 768 767 766 765 764 763 762 761 760 759 758 757 756 755 754 753 752 751 750 749 748 747 746 745 744 743 742 741 740 739 738 737 736 735 734 733 732 731 730 729 728 727 726 725 724 723 722 721 720 719 718 717 716 715 714 713 712 711 710 709 708 707 706 705 704 703 702 701 700 699 698 697 696 695 694 693 692 691 690 689 688 687 686 685 684 683 682 681 680 679 678 677 676 675 674 673 672 671 670 669 668 667 666 665 664 663 662 661 660 659 658 657 656 655 654 653 652 651 650 649 648 647 646 645 644 643 642 641 640 639 638 637 636 635 634 633 632 631 630 629 628 627 626 625 624 623 622 621 620 619 618 617 616 615 614 613 612 611 610 609 608 607 606 605 604 603 602 601 600 599 598 597 596 595 594 593 592 591 590 589 588 587 586 585 584 583 582 581 580 579 578 577 576 575 574 573 572 571 570 569 568 567 566 565 564 563 562 561 560 559 558 557 556 555 554 553 552 551 550 549 548 547 546 545 544 543 542 541 540 539 538 537 536 535 534 533 532 531 530 529 528 527 526 525 524 523 522 521 520 519 518 517 516 515 514 513 512 511 510 509 508 507 506 505 504 503 502 501 500 499 498 497 496 495 494 493 492 491 490 489 488 487 486 485 484 483 482 481 480 479 478 477 476 475 474 473 472 471 470 469 468 467 466 465 464 463 462 461 460 459 458 457 456 455 454 453 452 451 450 449 448 447 446 445 444 443 442 441 440 439 438 437 436 435 434 433 432 431 430 429 428 427 426 425 424 423 422 421 420 419 418 417 416 415 414 413 412 411 410 409 408 407 406 405 404 403 402 401 400 399 398 397 396 395 394 393 392 391 390 389 388 387 386 385 384 383 382 381 380 379 378 377 376 375 374 373 372 371 370 369 368 367 366 365 364 363 362 361 360 359 358 357 356 355 354 353 352 351 350 349 348 347 346 345 344 343 342 341 340 339 338 337 336 335 334 333 332 331 330 329 328 327 326 325 324 323 322 321 320 319 318 317 316 315 314 313 312 311 310 309 308 307 306 305 304 303 302 301 300 299 298 297 296 295 294 293 292 291 290 289 288 287 286 285 284 283 282 281 280 279 278 277 276 275 274 273 272 271 270 269 268 267 266 265 264 263 262 261 260 259 258 257 256 255 254 253 252 251 250 249 248 247 246 245 244 243 242 241 240 239 238 237 236 235 234 233 232 231 230 229 228 227 226 225 224 223 222 221 220 219 218 217 216 215 214 213 212 211 210 209 208 207 206 205 204 203 202 201 200 199 198 197 196 195 194 193 192 191 190 189 188 187 186 185 184 183 182 181 180 179 178 177 176 175 174 173 172 171 170 169 168 167 166 165 164 163 162 161 160 159 158 157 156 155 154 153 152 151 150 149 148 147 146 145 144 143 142 141 140 139 138 137 136 135 134 133 132 131 130 129 128 127 126 125 124 123 122 121 120 119 118 117 116 115 114 113 112 111 110 109 108 107 106 105 104 103 102 101 100 99 98 97 96 95 94 93 92 91 90 89 88 87 86 85 84 83 82 81 80 79 78 77 76 75 74 73 72 71 70 69 68 67 66 65 64 63 62 61 60 59 58 57 56 55 54 53 52 51 50 49 48 47 46 45 44 43 42 41 40 39 38 37 36 35 34 33 32 31 30 29 28 27 26 25 24 23 22 21 20 19 18 17 16 15 14 13 12 11 10 9 8 7 6 5 4 3 2 1

units           real
atom_style      full
boundary        f f f
timestep	1.0

# modified CLAYFF parameters from Kerisit (2011)
pair_style      lj/cut/coul/cut 35.0
neigh_modify one 10000
comm_style tiled

read_data       cub_np_un.data
Reading data file ...
  orthogonal box = (-2.220001 -2.220001 -2.220001) to (99.540001 99.540001 99.540001)
  2 by 2 by 2 MPI processor grid
  reading atoms ...
  1466 atoms
  reading velocities ...
  1466 velocities
Finding 1-2 1-3 1-4 neighbors ...
  special bond factors lj:    0        0        0       
  special bond factors coul:  0        0        0       
     0 = max # of 1-2 neighbors
     0 = max # of 1-3 neighbors
     0 = max # of 1-4 neighbors
     1 = max # of special neighbors
  special bonds CPU = 0.000 seconds
  read_data CPU = 0.004 seconds
balance 1.1 rcb
Balancing ...
  generated 3 of 3 mixed pair_coeff terms from geometric mixing rule
Neighbor list info ...
  update every 1 steps, delay 10 steps, check yes
  max neighbors/atom: 10000, page size: 100000
  master list distance cutoff = 37
  ghost atom cutoff = 37
  binsize = 18.5, bins = 6 6 6
  1 neighbor lists, perpetual/occasional/extra = 1 0 0
  (1) pair lj/cut/coul/cut, perpetual
      attributes: half, newton on
      pair build: half/bin/newton
      stencil: half/bin/3d
      bin: standard

dump  dmp all custom 10000 swap.lammpstrj id mol type q x y z
dump_modify dmp sort id

group  fe type 1 2
602 atoms in group fe
variable nfe equal count(fe)
variable nsteps equal round((${nfe}*${nfe})/100)
variable nsteps equal round((602*${nfe})/100)
variable nsteps equal round((602*602)/100)
#variable nsteps equal 5000

compute  coord fe coord/atom cutoff 2.0
dump coord  fe custom 1 cub_swp.coord id type c_coord
dump_modify  coord sort id
run  0
WARNING: No fixes with time integration, atoms won't move (../verlet.cpp:60)
  generated 3 of 3 mixed pair_coeff terms from geometric mixing rule
Neighbor list info ...
  update every 1 steps, delay 10 steps, check yes
  max neighbors/atom: 10000, page size: 100000
  master list distance cutoff = 37
  ghost atom cutoff = 37
  binsize = 18.5, bins = 6 6 6
  2 neighbor lists, perpetual/occasional/extra = 1 1 0
  (1) pair lj/cut/coul/cut, perpetual
      attributes: half, newton on
      pair build: half/bin/newton
      stencil: half/bin/3d
      bin: standard
  (2) compute coord/atom, occasional
      attributes: full, newton on
      pair build: full/bin
      stencil: full/bin/3d
      bin: standard
Per MPI rank memory allocation (min/avg/max) = 10.06 | 10.49 | 10.82 Mbytes
Step Temp E_pair E_mol TotEng Press 
       0            0   -282934.92            0   -282934.92   -2008.5954 
Loop time of 1.87254e-05 on 8 procs for 0 steps with 1466 atoms

73.4% CPU use with 8 MPI tasks x no OpenMP threads

MPI task timing breakdown:
Section |  min time  |  avg time  |  max time  |%varavg| %total
---------------------------------------------------------------
Pair    | 0          | 0          | 0          |   0.0 |  0.00
Bond    | 0          | 0          | 0          |   0.0 |  0.00
Neigh   | 0          | 0          | 0          |   0.0 |  0.00
Comm    | 0          | 0          | 0          |   0.0 |  0.00
Output  | 0          | 0          | 0          |   0.0 |  0.00
Modify  | 0          | 0          | 0          |   0.0 |  0.00
Other   |            | 1.873e-05  |            |       |100.00

Nlocal:         183.25 ave         190 max         178 min
Histogram: 1 0 0 0 6 0 0 0 0 1
Nghost:        1282.75 ave        1288 max        1276 min
Histogram: 1 0 0 0 0 6 0 0 0 1
Neighs:         134218 ave      198643 max       68048 min
Histogram: 1 1 1 1 0 0 1 0 2 1
FullNghs:       268436 ave      278325 max      260745 min
Histogram: 1 0 0 0 6 0 0 0 0 1

Total # of neighbors = 2147490
Ave neighs/atom = 1464.8636
Ave special neighs/atom = 0
Neighbor list builds = 0
Dangerous builds = 0
variable  fet atom c_coord==4
group  fet variable fet
170 atoms in group fet
group  feo subtract fe fet
432 atoms in group feo
undump  coord

set  group all mol 0
Setting atom values ...
  1466 settings made for mol
set  group fet mol 1
Setting atom values ...
  170 settings made for mol
set  group feo mol 2
Setting atom values ...
  432 settings made for mol

variable  fet3 atom "gmask(fet) && q == 1.575"
group  fet3 dynamic fe var fet3 every 100
dynamic group fet3 defined
variable  rfet3 equal count(fet3)/count(fet)

variable  feo3 atom "gmask(feo) && q == 1.575"
group  feo3 dynamic fe var feo3 every 100
dynamic group feo3 defined
variable  rfeo3 equal count(feo3)/count(feo)

#variable cnum equal 104  # Number of SA cycles

label temp_loop

  variable ftemp equal v_temp

  # Electrostatic relaxation-long
  fix  swp fe atom/swap 1 1 ${rand} ${temp} ke no types 1 2
  fix  swp fe atom/swap 1 1 855824 ${temp} ke no types 1 2
  fix  swp fe atom/swap 1 1 855824 1000 ke no types 1 2
  thermo  1000
  thermo_style custom step  pe f_swp[1] f_swp[2] v_rfet3 v_rfeo3
  run  ${nsteps}
  run  3624
WARNING: No fixes with time integration, atoms won't move (../verlet.cpp:60)
  generated 3 of 3 mixed pair_coeff terms from geometric mixing rule
Per MPI rank memory allocation (min/avg/max) = 8.79 | 9.219 | 9.553 Mbytes
Step PotEng f_swp[1] f_swp[2] v_rfet3 v_rfeo3 
       0   -282934.92            0            0   0.87647059   0.86805556 
    1000   -286794.97         1000          129   0.94117647   0.84259259 
    2000   -286956.16         2000          160   0.97647059    0.8287037 
    3000   -287058.45         3000          190   0.98235294   0.82638889 
    3624   -287097.17         3624          203   0.98823529   0.82407407 
Loop time of 50.776 on 8 procs for 3624 steps with 1466 atoms

Performance: 6.167 ns/day, 3.892 hours/ns, 71.372 timesteps/s
96.7% CPU use with 8 MPI tasks x no OpenMP threads

MPI task timing breakdown:
Section |  min time  |  avg time  |  max time  |%varavg| %total
---------------------------------------------------------------
Pair    | 2.8878     | 5.645      | 8.317      |  80.8 | 11.12
Bond    | 0.00023344 | 0.00028063 | 0.00033284 |   0.0 |  0.00
Neigh   | 1.8785     | 2.7481     | 3.5718     |  35.9 |  5.41
Comm    | 2.0772     | 5.4125     | 8.9406     | 103.6 | 10.66
Output  | 0.00013568 | 0.00016589 | 0.00033703 |   0.0 |  0.00
Modify  | 36.799     | 36.96      | 37.099     |   1.9 | 72.79
Other   |            | 0.01023    |            |       |  0.02

Nlocal:         183.25 ave         190 max         178 min
Histogram: 1 0 0 0 6 0 0 0 0 1
Nghost:        1282.75 ave        1288 max        1276 min
Histogram: 1 0 0 0 0 6 0 0 0 1
Neighs:         134218 ave      198643 max       68048 min
Histogram: 1 1 1 1 0 0 1 0 2 1
FullNghs:       268436 ave      278325 max      260745 min
Histogram: 1 0 0 0 6 0 0 0 0 1

Total # of neighbors = 2147490
Ave neighs/atom = 1464.8636
Ave special neighs/atom = 0
Neighbor list builds = 7248
Dangerous builds = 0

 # variable cnum equal (${cnum}-1)

  unfix swp

next temp
jump SELF temp_loop

  variable ftemp equal v_temp

  # Electrostatic relaxation-long
  fix  swp fe atom/swap 1 1 ${rand} ${temp} ke no types 1 2
  fix  swp fe atom/swap 1 1 710414 ${temp} ke no types 1 2
  fix  swp fe atom/swap 1 1 710414 999 ke no types 1 2
  thermo  1000
  thermo_style custom step  pe f_swp[1] f_swp[2] v_rfet3 v_rfeo3
  run  ${nsteps}
  run  3624
WARNING: No fixes with time integration, atoms won't move (../verlet.cpp:60)
  generated 3 of 3 mixed pair_coeff terms from geometric mixing rule
Per MPI rank memory allocation (min/avg/max) = 8.79 | 9.219 | 9.553 Mbytes
Step PotEng f_swp[1] f_swp[2] v_rfet3 v_rfeo3 
    3624   -287097.17            0            0   0.98823529   0.82407407 
    4000   -287096.38          376            2   0.98823529   0.82407407 
    5000   -287123.24         1376            8   0.98823529   0.82407407 
    6000   -287140.09         2376           12   0.99411765   0.82175926 
    7000   -287147.57         3376           18   0.98823529   0.82407407 
    7248   -287153.14         3624           21   0.98823529   0.82407407 
Loop time of 48.7248 on 8 procs for 3624 steps with 1466 atoms

Performance: 6.426 ns/day, 3.735 hours/ns, 74.377 timesteps/s
97.9% CPU use with 8 MPI tasks x no OpenMP threads

MPI task timing breakdown:
Section |  min time  |  avg time  |  max time  |%varavg| %total
---------------------------------------------------------------
Pair    | 2.8397     | 5.5461     | 8.2064     |  81.5 | 11.38
Bond    | 0.00023159 | 0.00027241 | 0.00032647 |   0.0 |  0.00
Neigh   | 1.9489     | 2.7266     | 3.5379     |  33.7 |  5.60
Comm    | 1.1035     | 4.4989     | 7.8923     | 113.7 |  9.23
Output  | 0.00016103 | 0.0028665  | 0.0050637  |   3.9 |  0.01
Modify  | 35.862     | 35.94      | 36.032     |   1.1 | 73.76
Other   |            | 0.009665   |            |       |  0.02

Nlocal:         183.25 ave         190 max         178 min
Histogram: 1 0 0 0 6 0 0 0 0 1
Nghost:        1282.75 ave        1288 max        1276 min
Histogram: 1 0 0 0 0 6 0 0 0 1
Neighs:         134218 ave      198643 max       68048 min
Histogram: 1 1 1 1 0 0 1 0 2 1
FullNghs:       268436 ave      278325 max      260745 min
Histogram: 1 0 0 0 6 0 0 0 0 1

Total # of neighbors = 2147490
Ave neighs/atom = 1464.8636
Ave special neighs/atom = 0
Neighbor list builds = 7248
Dangerous builds = 0

 # variable cnum equal (${cnum}-1)

  unfix swp

next temp
jump SELF temp_loop

  variable ftemp equal v_temp

  # Electrostatic relaxation-long
  fix  swp fe atom/swap 1 1 ${rand} ${temp} ke no types 1 2
  fix  swp fe atom/swap 1 1 755762 ${temp} ke no types 1 2
  fix  swp fe atom/swap 1 1 755762 998 ke no types 1 2
  thermo  1000
  thermo_style custom step  pe f_swp[1] f_swp[2] v_rfet3 v_rfeo3
  run  ${nsteps}
  run  3624
WARNING: No fixes with time integration, atoms won't move (../verlet.cpp:60)
  generated 3 of 3 mixed pair_coeff terms from geometric mixing rule
Per MPI rank memory allocation (min/avg/max) = 8.79 | 9.219 | 9.553 Mbytes
Step PotEng f_swp[1] f_swp[2] v_rfet3 v_rfeo3 
    7248   -287153.14            0            0   0.98823529   0.82407407 
    8000   -287145.04          752            5   0.98235294   0.82638889 
    9000   -287172.38         1752           13   0.98823529   0.82407407 
   10000   -287191.36         2752           25   0.98823529   0.82407407 
   10872   -287193.43         3624           29   0.99411765   0.82175926 
Loop time of 48.1615 on 8 procs for 3624 steps with 1466 atoms

Performance: 6.501 ns/day, 3.692 hours/ns, 75.247 timesteps/s
98.3% CPU use with 8 MPI tasks x no OpenMP threads

MPI task timing breakdown:
Section |  min time  |  avg time  |  max time  |%varavg| %total
---------------------------------------------------------------
Pair    | 2.8507     | 5.5273     | 8.1597     |  80.5 | 11.48
Bond    | 0.00021726 | 0.00027166 | 0.00033272 |   0.0 |  0.00
Neigh   | 1.9634     | 2.7536     | 3.5296     |  33.5 |  5.72
Comm    | 0.99723    | 4.3614     | 7.7948     | 116.1 |  9.06
Output  | 0.0005159  | 0.00055326 | 0.00076381 |   0.0 |  0.00
Modify  | 35.464     | 35.508     | 35.54      |   0.4 | 73.73
Other   |            | 0.009938   |            |       |  0.02

Nlocal:         183.25 ave         190 max         178 min
Histogram: 1 0 0 0 6 0 0 0 0 1
Nghost:        1282.75 ave        1288 max        1276 min
Histogram: 1 0 0 0 0 6 0 0 0 1
Neighs:         134218 ave      198643 max       68048 min
Histogram: 1 1 1 1 0 0 1 0 2 1
FullNghs:       268436 ave      278325 max      260745 min
Histogram: 1 0 0 0 6 0 0 0 0 1

Total # of neighbors = 2147490
Ave neighs/atom = 1464.8636
Ave special neighs/atom = 0
Neighbor list builds = 7248
Dangerous builds = 0

 # variable cnum equal (${cnum}-1)

  unfix swp

next temp
jump SELF temp_loop

  variable ftemp equal v_temp

  # Electrostatic relaxation-long
  fix  swp fe atom/swap 1 1 ${rand} ${temp} ke no types 1 2
  fix  swp fe atom/swap 1 1 4574249 ${temp} ke no types 1 2
  fix  swp fe atom/swap 1 1 4574249 997 ke no types 1 2
  thermo  1000
  thermo_style custom step  pe f_swp[1] f_swp[2] v_rfet3 v_rfeo3
  run  ${nsteps}
  run  3624
WARNING: No fixes with time integration, atoms won't move (../verlet.cpp:60)
  generated 3 of 3 mixed pair_coeff terms from geometric mixing rule
Per MPI rank memory allocation (min/avg/max) = 8.79 | 9.219 | 9.553 Mbytes
Step PotEng f_swp[1] f_swp[2] v_rfet3 v_rfeo3 
   10872   -287193.43            0            0   0.99411765   0.82175926 
   11000   -287199.33          128            2   0.99411765   0.82175926 
   12000   -287199.67         1128            4   0.99411765   0.82175926 
   13000   -287199.76         2128            5   0.99411765   0.82175926 
   14000   -287185.39         3128            9   0.99411765   0.82175926 
   14496   -287184.15         3624           11   0.99411765   0.82175926 
Loop time of 50.6903 on 8 procs for 3624 steps with 1466 atoms

Performance: 6.177 ns/day, 3.885 hours/ns, 71.493 timesteps/s
97.1% CPU use with 8 MPI tasks x no OpenMP threads

MPI task timing breakdown:
Section |  min time  |  avg time  |  max time  |%varavg| %total
---------------------------------------------------------------
Pair    | 2.8791     | 5.5962     | 8.3963     |  81.5 | 11.04
Bond    | 0.00025124 | 0.00028246 | 0.00032515 |   0.0 |  0.00
Neigh   | 1.9622     | 2.7721     | 3.6159     |  33.8 |  5.47
Comm    | 1.3892     | 4.9749     | 8.4151     | 109.0 |  9.81
Output  | 0.00014101 | 0.00090415 | 0.0018329  |   0.0 |  0.00
Modify  | 37.243     | 37.336     | 37.423     |   1.1 | 73.65
Other   |            | 0.01009    |            |       |  0.02

Nlocal:         183.25 ave         190 max         178 min
Histogram: 1 0 0 0 6 0 0 0 0 1
Nghost:        1282.75 ave        1288 max        1276 min
Histogram: 1 0 0 0 0 6 0 0 0 1
Neighs:         134218 ave      198643 max       68048 min
Histogram: 1 1 1 1 0 0 1 0 2 1
FullNghs:       268436 ave      278325 max      260745 min
Histogram: 1 0 0 0 6 0 0 0 0 1

Total # of neighbors = 2147490
Ave neighs/atom = 1464.8636
Ave special neighs/atom = 0
Neighbor list builds = 7248
Dangerous builds = 0

 # variable cnum equal (${cnum}-1)

  unfix swp

next temp
jump SELF temp_loop

  variable ftemp equal v_temp

  # Electrostatic relaxation-long
  fix  swp fe atom/swap 1 1 ${rand} ${temp} ke no types 1 2
  fix  swp fe atom/swap 1 1 5979850 ${temp} ke no types 1 2
  fix  swp fe atom/swap 1 1 5979850 996 ke no types 1 2
  thermo  1000
  thermo_style custom step  pe f_swp[1] f_swp[2] v_rfet3 v_rfeo3
  run  ${nsteps}
  run  3624
WARNING: No fixes with time integration, atoms won't move (../verlet.cpp:60)
  generated 3 of 3 mixed pair_coeff terms from geometric mixing rule
Per MPI rank memory allocation (min/avg/max) = 8.79 | 9.219 | 9.553 Mbytes
Step PotEng f_swp[1] f_swp[2] v_rfet3 v_rfeo3 
   14496   -287184.15            0            0   0.99411765   0.82175926 
   15000   -287204.52          504            3   0.99411765   0.82175926 
   16000   -287205.29         1504            5   0.99411765   0.82175926 
   17000   -287206.45         2504            6   0.99411765   0.82175926 
   18000   -287218.88         3504           10   0.99411765   0.82175926 
   18120   -287218.88         3624           10   0.99411765   0.82175926 
Loop time of 54.7532 on 8 procs for 3624 steps with 1466 atoms

Performance: 5.719 ns/day, 4.197 hours/ns, 66.188 timesteps/s
95.8% CPU use with 8 MPI tasks x no OpenMP threads

MPI task timing breakdown:
Section |  min time  |  avg time  |  max time  |%varavg| %total
---------------------------------------------------------------
Pair    | 2.8813     | 5.6697     | 8.3965     |  81.9 | 10.36
Bond    | 0.00027222 | 0.00030015 | 0.00034176 |   0.0 |  0.00
Neigh   | 1.9925     | 2.805      | 3.6493     |  33.9 |  5.12
Comm    | 2.7688     | 6.1429     | 9.5135     |  95.5 | 11.22
Output  | 0.0001549  | 0.00043786 | 0.0006282  |   0.0 |  0.00
Modify  | 39.927     | 40.124     | 40.354     |   2.4 | 73.28
Other   |            | 0.01103    |            |       |  0.02

Nlocal:         183.25 ave         190 max         178 min
Histogram: 1 0 0 0 6 0 0 0 0 1
Nghost:        1282.75 ave        1288 max        1276 min
Histogram: 1 0 0 0 0 6 0 0 0 1
Neighs:         134218 ave      198643 max       68048 min
Histogram: 1 1 1 1 0 0 1 0 2 1
FullNghs:       268436 ave      278325 max      260745 min
Histogram: 1 0 0 0 6 0 0 0 0 1

Total # of neighbors = 2147490
Ave neighs/atom = 1464.8636
Ave special neighs/atom = 0
Neighbor list builds = 7248
Dangerous builds = 0

 # variable cnum equal (${cnum}-1)

  unfix swp

next temp
jump SELF temp_loop

  variable ftemp equal v_temp

  # Electrostatic relaxation-long
  fix  swp fe atom/swap 1 1 ${rand} ${temp} ke no types 1 2
  fix  swp fe atom/swap 1 1 2707118 ${temp} ke no types 1 2
  fix  swp fe atom/swap 1 1 2707118 995 ke no types 1 2
  thermo  1000
  thermo_style custom step  pe f_swp[1] f_swp[2] v_rfet3 v_rfeo3
  run  ${nsteps}
  run  3624
WARNING: No fixes with time integration, atoms won't move (../verlet.cpp:60)
  generated 3 of 3 mixed pair_coeff terms from geometric mixing rule
Per MPI rank memory allocation (min/avg/max) = 8.79 | 9.219 | 9.553 Mbytes
Step PotEng f_swp[1] f_swp[2] v_rfet3 v_rfeo3 
   18120   -287218.88            0            0   0.99411765   0.82175926 
   19000   -287217.29          880            3   0.99411765   0.82175926 
   20000   -287210.06         1880            7   0.99411765   0.82175926 
   21000   -287213.92         2880           10   0.99411765   0.82175926 
   21744   -287210.73         3624           12   0.99411765   0.82175926 
Loop time of 49.4232 on 8 procs for 3624 steps with 1466 atoms

Performance: 6.335 ns/day, 3.788 hours/ns, 73.326 timesteps/s
97.8% CPU use with 8 MPI tasks x no OpenMP threads

MPI task timing breakdown:
Section |  min time  |  avg time  |  max time  |%varavg| %total
---------------------------------------------------------------
Pair    | 2.861      | 5.5772     | 8.2293     |  81.2 | 11.28
Bond    | 0.0002407  | 0.00027892 | 0.00033496 |   0.0 |  0.00
Neigh   | 1.9524     | 2.7651     | 3.5654     |  33.8 |  5.59
Comm    | 1.2403     | 4.6061     | 8.0305     | 112.2 |  9.32
Output  | 0.0005163  | 0.00054271 | 0.00071234 |   0.0 |  0.00
Modify  | 36.374     | 36.464     | 36.569     |   1.2 | 73.78
Other   |            | 0.009622   |            |       |  0.02

Nlocal:         183.25 ave         190 max         178 min
Histogram: 1 0 0 0 6 0 0 0 0 1
Nghost:        1282.75 ave        1288 max        1276 min
Histogram: 1 0 0 0 0 6 0 0 0 1
Neighs:         134218 ave      198643 max       68048 min
Histogram: 1 1 1 1 0 0 1 0 2 1
FullNghs:       268436 ave      278325 max      260745 min
Histogram: 1 0 0 0 6 0 0 0 0 1

Total # of neighbors = 2147490
Ave neighs/atom = 1464.8636
Ave special neighs/atom = 0
Neighbor list builds = 7248
Dangerous builds = 0

 # variable cnum equal (${cnum}-1)

  unfix swp

next temp
jump SELF temp_loop

  variable ftemp equal v_temp

  # Electrostatic relaxation-long
  fix  swp fe atom/swap 1 1 ${rand} ${temp} ke no types 1 2
  fix  swp fe atom/swap 1 1 1165944 ${temp} ke no types 1 2
  fix  swp fe atom/swap 1 1 1165944 994 ke no types 1 2
  thermo  1000
  thermo_style custom step  pe f_swp[1] f_swp[2] v_rfet3 v_rfeo3
  run  ${nsteps}
  run  3624
WARNING: No fixes with time integration, atoms won't move (../verlet.cpp:60)
  generated 3 of 3 mixed pair_coeff terms from geometric mixing rule
Per MPI rank memory allocation (min/avg/max) = 8.79 | 9.219 | 9.553 Mbytes
Step PotEng f_swp[1] f_swp[2] v_rfet3 v_rfeo3 
   21744   -287210.73            0            0   0.99411765   0.82175926 
   22000   -287210.73          256            0   0.99411765   0.82175926 
   23000   -287211.14         1256            3   0.99411765   0.82175926 
   24000   -287208.61         2256            5   0.99411765   0.82175926 
   25000   -287205.61         3256            6   0.99411765   0.82175926 
   25368   -287205.61         3624            6   0.99411765   0.82175926 
Loop time of 47.625 on 8 procs for 3624 steps with 1466 atoms

Performance: 6.575 ns/day, 3.650 hours/ns, 76.095 timesteps/s
98.8% CPU use with 8 MPI tasks x no OpenMP threads

MPI task timing breakdown:
Section |  min time  |  avg time  |  max time  |%varavg| %total
---------------------------------------------------------------
Pair    | 2.833      | 5.5546     | 8.2172     |  81.5 | 11.66
Bond    | 0.00020621 | 0.00026303 | 0.00032539 |   0.0 |  0.00
Neigh   | 1.9363     | 2.7474     | 3.5426     |  33.9 |  5.77
Comm    | 0.8188     | 4.2531     | 7.7933     | 120.3 |  8.93
Output  | 0.00018185 | 0.00068858 | 0.0014483  |   0.0 |  0.00
Modify  | 35.035     | 35.06      | 35.096     |   0.3 | 73.62
Other   |            | 0.009343   |            |       |  0.02

Nlocal:         183.25 ave         190 max         178 min
Histogram: 1 0 0 0 6 0 0 0 0 1
Nghost:        1282.75 ave        1288 max        1276 min
Histogram: 1 0 0 0 0 6 0 0 0 1
Neighs:         134218 ave      198643 max       68048 min
Histogram: 1 1 1 1 0 0 1 0 2 1
FullNghs:       268436 ave      278325 max      260745 min
Histogram: 1 0 0 0 6 0 0 0 0 1

Total # of neighbors = 2147490
Ave neighs/atom = 1464.8636
Ave special neighs/atom = 0
Neighbor list builds = 7248
Dangerous builds = 0

 # variable cnum equal (${cnum}-1)

  unfix swp

next temp
jump SELF temp_loop

  variable ftemp equal v_temp

  # Electrostatic relaxation-long
  fix  swp fe atom/swap 1 1 ${rand} ${temp} ke no types 1 2
  fix  swp fe atom/swap 1 1 3631288 ${temp} ke no types 1 2
  fix  swp fe atom/swap 1 1 3631288 993 ke no types 1 2
  thermo  1000
  thermo_style custom step  pe f_swp[1] f_swp[2] v_rfet3 v_rfeo3
  run  ${nsteps}
  run  3624
WARNING: No fixes with time integration, atoms won't move (../verlet.cpp:60)
  generated 3 of 3 mixed pair_coeff terms from geometric mixing rule
Per MPI rank memory allocation (min/avg/max) = 8.79 | 9.219 | 9.553 Mbytes
Step PotEng f_swp[1] f_swp[2] v_rfet3 v_rfeo3 
   25368   -287205.61            0            0   0.99411765   0.82175926 
   26000   -287205.69          632            2   0.99411765   0.82175926 
   27000   -287192.95         1632            5            1   0.81944444 
   28000   -287201.14         2632           10            1   0.81944444 
   28992   -287198.73         3624           12            1   0.81944444 
Loop time of 53.5806 on 8 procs for 3624 steps with 1466 atoms

Performance: 5.844 ns/day, 4.107 hours/ns, 67.636 timesteps/s
96.2% CPU use with 8 MPI tasks x no OpenMP threads

MPI task timing breakdown:
Section |  min time  |  avg time  |  max time  |%varavg| %total
---------------------------------------------------------------
Pair    | 2.8964     | 5.659      | 8.3937     |  82.1 | 10.56
Bond    | 0.00025183 | 0.00028392 | 0.00032422 |   0.0 |  0.00
Neigh   | 1.9735     | 2.8048     | 3.6147     |  34.1 |  5.23
Comm    | 2.7093     | 5.9633     | 9.296      |  93.7 | 11.13
Output  | 0.00011581 | 0.00013571 | 0.00022698 |   0.0 |  0.00
Modify  | 38.852     | 39.14      | 39.412     |   3.8 | 73.05
Other   |            | 0.01309    |            |       |  0.02

Nlocal:         183.25 ave         190 max         178 min
Histogram: 1 0 0 0 6 0 0 0 0 1
Nghost:        1282.75 ave        1288 max        1276 min
Histogram: 1 0 0 0 0 6 0 0 0 1
Neighs:         134218 ave      198643 max       68048 min
Histogram: 1 1 1 1 0 0 1 0 2 1
FullNghs:       268436 ave      278325 max      260745 min
Histogram: 1 0 0 0 6 0 0 0 0 1

Total # of neighbors = 2147490
Ave neighs/atom = 1464.8636
Ave special neighs/atom = 0
Neighbor list builds = 7248
Dangerous builds = 0

 # variable cnum equal (${cnum}-1)

  unfix swp

next temp
jump SELF temp_loop

  variable ftemp equal v_temp

  # Electrostatic relaxation-long
  fix  swp fe atom/swap 1 1 ${rand} ${temp} ke no types 1 2
  fix  swp fe atom/swap 1 1 7952271 ${temp} ke no types 1 2
  fix  swp fe atom/swap 1 1 7952271 992 ke no types 1 2
  thermo  1000
  thermo_style custom step  pe f_swp[1] f_swp[2] v_rfet3 v_rfeo3
  run  ${nsteps}
  run  3624
WARNING: No fixes with time integration, atoms won't move (../verlet.cpp:60)
  generated 3 of 3 mixed pair_coeff terms from geometric mixing rule
Per MPI rank memory allocation (min/avg/max) = 8.79 | 9.219 | 9.553 Mbytes
Step PotEng f_swp[1] f_swp[2] v_rfet3 v_rfeo3 
   28992   -287198.73            0            0            1   0.81944444 
   29000   -287198.73            8            0            1   0.81944444 
   30000   -287200.75         1008            2            1   0.81944444 
   31000   -287197.12         2008            3            1   0.81944444 
   32000   -287195.07         3008            8            1   0.81944444 
   32616   -287185.12         3624           14            1   0.81944444 
Loop time of 51.1395 on 8 procs for 3624 steps with 1466 atoms

Performance: 6.123 ns/day, 3.920 hours/ns, 70.865 timesteps/s
97.1% CPU use with 8 MPI tasks x no OpenMP threads

MPI task timing breakdown:
Section |  min time  |  avg time  |  max time  |%varavg| %total
---------------------------------------------------------------
Pair    | 2.8725     | 5.6229     | 8.279      |  81.4 | 11.00
Bond    | 0.0002422  | 0.00028284 | 0.00034474 |   0.0 |  0.00
Neigh   | 1.9697     | 2.788      | 3.6195     |  34.7 |  5.45
Comm    | 1.8592     | 5.1603     | 8.5834     | 105.3 | 10.09
Output  | 0.0059421  | 0.0070499  | 0.0083527  |   1.1 |  0.01
Modify  | 37.363     | 37.551     | 37.703     |   2.0 | 73.43
Other   |            | 0.009875   |            |       |  0.02

Nlocal:         183.25 ave         190 max         178 min
Histogram: 1 0 0 0 6 0 0 0 0 1
Nghost:        1282.75 ave        1288 max        1276 min
Histogram: 1 0 0 0 0 6 0 0 0 1
Neighs:         134218 ave      198643 max       68048 min
Histogram: 1 1 1 1 0 0 1 0 2 1
FullNghs:       268436 ave      278325 max      260745 min
Histogram: 1 0 0 0 6 0 0 0 0 1

Total # of neighbors = 2147490
Ave neighs/atom = 1464.8636
Ave special neighs/atom = 0
Neighbor list builds = 7248
Dangerous builds = 0

 # variable cnum equal (${cnum}-1)

  unfix swp

next temp
jump SELF temp_loop

  variable ftemp equal v_temp

  # Electrostatic relaxation-long
  fix  swp fe atom/swap 1 1 ${rand} ${temp} ke no types 1 2
  fix  swp fe atom/swap 1 1 185888 ${temp} ke no types 1 2
  fix  swp fe atom/swap 1 1 185888 991 ke no types 1 2
  thermo  1000
  thermo_style custom step  pe f_swp[1] f_swp[2] v_rfet3 v_rfeo3
  run  ${nsteps}
  run  3624
WARNING: No fixes with time integration, atoms won't move (../verlet.cpp:60)
  generated 3 of 3 mixed pair_coeff terms from geometric mixing rule
Per MPI rank memory allocation (min/avg/max) = 8.79 | 9.219 | 9.553 Mbytes
Step PotEng f_swp[1] f_swp[2] v_rfet3 v_rfeo3 
   32616   -287185.12            0            0            1   0.81944444 
   33000   -287188.13          384            4            1   0.81944444 
   34000   -287189.24         1384            6   0.99411765   0.82175926 
   35000   -287189.24         2384            6   0.99411765   0.82175926 
   36000   -287190.37         3384            9   0.99411765   0.82175926 
   36240   -287190.37         3624            9   0.99411765   0.82175926 
Loop time of 48.5287 on 8 procs for 3624 steps with 1466 atoms

Performance: 6.452 ns/day, 3.720 hours/ns, 74.677 timesteps/s
98.1% CPU use with 8 MPI tasks x no OpenMP threads

MPI task timing breakdown:
Section |  min time  |  avg time  |  max time  |%varavg| %total
---------------------------------------------------------------
Pair    | 2.8857     | 5.5933     | 8.203      |  80.2 | 11.53
Bond    | 0.00023467 | 0.00027771 | 0.00032539 |   0.0 |  0.00
Neigh   | 1.9709     | 2.7706     | 3.567      |  33.2 |  5.71
Comm    | 1.2213     | 4.5591     | 7.9973     | 112.2 |  9.39
Output  | 0.0021876  | 0.0023311  | 0.0025882  |   0.2 |  0.00
Modify  | 35.523     | 35.593     | 35.662     |   0.9 | 73.34
Other   |            | 0.01002    |            |       |  0.02

Nlocal:         183.25 ave         190 max         178 min
Histogram: 1 0 0 0 6 0 0 0 0 1
Nghost:        1282.75 ave        1288 max        1276 min
Histogram: 1 0 0 0 0 6 0 0 0 1
Neighs:         134218 ave      198643 max       68048 min
Histogram: 1 1 1 1 0 0 1 0 2 1
FullNghs:       268436 ave      278325 max      260745 min
Histogram: 1 0 0 0 6 0 0 0 0 1

Total # of neighbors = 2147490
Ave neighs/atom = 1464.8636
Ave special neighs/atom = 0
Neighbor list builds = 7248
Dangerous builds = 0

 # variable cnum equal (${cnum}-1)

  unfix swp

next temp
jump SELF temp_loop

  variable ftemp equal v_temp

  # Electrostatic relaxation-long
  fix  swp fe atom/swap 1 1 ${rand} ${temp} ke no types 1 2
  fix  swp fe atom/swap 1 1 7935996 ${temp} ke no types 1 2
  fix  swp fe atom/swap 1 1 7935996 990 ke no types 1 2
  thermo  1000
  thermo_style custom step  pe f_swp[1] f_swp[2] v_rfet3 v_rfeo3
  run  ${nsteps}
  run  3624
WARNING: No fixes with time integration, atoms won't move (../verlet.cpp:60)
  generated 3 of 3 mixed pair_coeff terms from geometric mixing rule
Per MPI rank memory allocation (min/avg/max) = 8.79 | 9.219 | 9.553 Mbytes
Step PotEng f_swp[1] f_swp[2] v_rfet3 v_rfeo3 
   36240   -287190.37            0            0   0.99411765   0.82175926 
   37000   -287191.18          760            1   0.99411765   0.82175926 
   38000   -287184.46         1760            6   0.99411765   0.82175926 
   39000   -287179.16         2760           11   0.99411765   0.82175926 
   39864   -287192.19         3624           17   0.99411765   0.82175926 
Loop time of 47.4012 on 8 procs for 3624 steps with 1466 atoms

Performance: 6.606 ns/day, 3.633 hours/ns, 76.454 timesteps/s
98.8% CPU use with 8 MPI tasks x no OpenMP threads

MPI task timing breakdown:
Section |  min time  |  avg time  |  max time  |%varavg| %total
---------------------------------------------------------------
Pair    | 2.8707     | 5.5517     | 8.182      |  80.6 | 11.71
Bond    | 0.00022002 | 0.00026883 | 0.00029125 |   0.0 |  0.00
Neigh   | 1.9656     | 2.7515     | 3.5655     |  33.6 |  5.80
Comm    | 0.71643    | 4.1002     | 7.5143     | 119.4 |  8.65
Output  | 0.00010914 | 0.00015606 | 0.00045192 |   0.0 |  0.00
Modify  | 34.927     | 34.988     | 35.041     |   0.7 | 73.81
Other   |            | 0.009216   |            |       |  0.02

Nlocal:         183.25 ave         190 max         178 min
Histogram: 1 0 0 0 6 0 0 0 0 1
Nghost:        1282.75 ave        1288 max        1276 min
Histogram: 1 0 0 0 0 6 0 0 0 1
Neighs:         134218 ave      198643 max       68048 min
Histogram: 1 1 1 1 0 0 1 0 2 1
FullNghs:       268436 ave      278325 max      260745 min
Histogram: 1 0 0 0 6 0 0 0 0 1

Total # of neighbors = 2147490
Ave neighs/atom = 1464.8636
Ave special neighs/atom = 0
Neighbor list builds = 7248
Dangerous builds = 0

 # variable cnum equal (${cnum}-1)

  unfix swp

next temp
jump SELF temp_loop

  variable ftemp equal v_temp

  # Electrostatic relaxation-long
  fix  swp fe atom/swap 1 1 ${rand} ${temp} ke no types 1 2
  fix  swp fe atom/swap 1 1 473855 ${temp} ke no types 1 2
  fix  swp fe atom/swap 1 1 473855 989 ke no types 1 2
  thermo  1000
  thermo_style custom step  pe f_swp[1] f_swp[2] v_rfet3 v_rfeo3
  run  ${nsteps}
  run  3624
WARNING: No fixes with time integration, atoms won't move (../verlet.cpp:60)
  generated 3 of 3 mixed pair_coeff terms from geometric mixing rule
Per MPI rank memory allocation (min/avg/max) = 8.79 | 9.219 | 9.553 Mbytes
Step PotEng f_swp[1] f_swp[2] v_rfet3 v_rfeo3 
   39864   -287192.19            0            0   0.99411765   0.82175926 
   40000   -287191.37          136            1   0.99411765   0.82175926 
   41000   -287177.89         1136            5            1   0.81944444 
   42000   -287183.62         2136           10            1   0.81944444 
   43000   -287170.43         3136           21            1   0.81944444 
   43488   -287157.14         3624           27            1   0.81944444 
Loop time of 51.2787 on 8 procs for 3624 steps with 1466 atoms

Performance: 6.106 ns/day, 3.930 hours/ns, 70.673 timesteps/s
97.1% CPU use with 8 MPI tasks x no OpenMP threads

MPI task timing breakdown:
Section |  min time  |  avg time  |  max time  |%varavg| %total
---------------------------------------------------------------
Pair    | 2.8691     | 5.6313     | 8.2462     |  81.6 | 10.98
Bond    | 0.00027016 | 0.00028963 | 0.00031581 |   0.0 |  0.00
Neigh   | 1.972      | 2.7824     | 3.5879     |  34.0 |  5.43
Comm    | 1.9226     | 5.2767     | 8.814      | 107.9 | 10.29
Output  | 0.00063855 | 0.00066923 | 0.00084868 |   0.0 |  0.00
Modify  | 37.511     | 37.577     | 37.613     |   0.5 | 73.28
Other   |            | 0.01024    |            |       |  0.02

Nlocal:         183.25 ave         190 max         178 min
Histogram: 1 0 0 0 6 0 0 0 0 1
Nghost:        1282.75 ave        1288 max        1276 min
Histogram: 1 0 0 0 0 6 0 0 0 1
Neighs:         134218 ave      198643 max       68048 min
Histogram: 1 1 1 1 0 0 1 0 2 1
FullNghs:       268436 ave      278325 max      260745 min
Histogram: 1 0 0 0 6 0 0 0 0 1

Total # of neighbors = 2147490
Ave neighs/atom = 1464.8636
Ave special neighs/atom = 0
Neighbor list builds = 7248
Dangerous builds = 0

 # variable cnum equal (${cnum}-1)

  unfix swp

next temp
jump SELF temp_loop

  variable ftemp equal v_temp

  # Electrostatic relaxation-long
  fix  swp fe atom/swap 1 1 ${rand} ${temp} ke no types 1 2
  fix  swp fe atom/swap 1 1 7716369 ${temp} ke no types 1 2
  fix  swp fe atom/swap 1 1 7716369 988 ke no types 1 2
  thermo  1000
  thermo_style custom step  pe f_swp[1] f_swp[2] v_rfet3 v_rfeo3
  run  ${nsteps}
  run  3624
WARNING: No fixes with time integration, atoms won't move (../verlet.cpp:60)
  generated 3 of 3 mixed pair_coeff terms from geometric mixing rule
Per MPI rank memory allocation (min/avg/max) = 8.79 | 9.219 | 9.553 Mbytes
Step PotEng f_swp[1] f_swp[2] v_rfet3 v_rfeo3 
   43488   -287157.14            0            0            1   0.81944444 
   44000   -287175.86          512            4   0.99411765   0.82175926 
   45000   -287171.47         1512           11            1   0.81944444 
   46000   -287196.55         2512           22            1   0.81944444 
   47000   -287196.72         3512           26            1   0.81944444 
   47112   -287196.72         3624           26            1   0.81944444 
Loop time of 47.4365 on 8 procs for 3624 steps with 1466 atoms

Performance: 6.601 ns/day, 3.636 hours/ns, 76.397 timesteps/s
98.9% CPU use with 8 MPI tasks x no OpenMP threads

MPI task timing breakdown:
Section |  min time  |  avg time  |  max time  |%varavg| %total
---------------------------------------------------------------
Pair    | 2.823      | 5.5272     | 8.1597     |  80.5 | 11.65
Bond    | 0.00021664 | 0.00026799 | 0.00030545 |   0.0 |  0.00
Neigh   | 1.9461     | 2.7486     | 3.5432     |  33.3 |  5.79
Comm    | 0.77255    | 4.1502     | 7.5912     | 117.9 |  8.75
Output  | 0.0001319  | 0.00017319 | 0.00042403 |   0.0 |  0.00
Modify  | 34.951     | 35         | 35.075     |   0.8 | 73.78
Other   |            | 0.01057    |            |       |  0.02

Nlocal:         183.25 ave         190 max         178 min
Histogram: 1 0 0 0 6 0 0 0 0 1
Nghost:        1282.75 ave        1288 max        1276 min
Histogram: 1 0 0 0 0 6 0 0 0 1
Neighs:         134218 ave      198643 max       68048 min
Histogram: 1 1 1 1 0 0 1 0 2 1
FullNghs:       268436 ave      278325 max      260745 min
Histogram: 1 0 0 0 6 0 0 0 0 1

Total # of neighbors = 2147490
Ave neighs/atom = 1464.8636
Ave special neighs/atom = 0
Neighbor list builds = 7248
Dangerous builds = 0

 # variable cnum equal (${cnum}-1)

  unfix swp

next temp
jump SELF temp_loop

  variable ftemp equal v_temp

  # Electrostatic relaxation-long
  fix  swp fe atom/swap 1 1 ${rand} ${temp} ke no types 1 2
  fix  swp fe atom/swap 1 1 8487327 ${temp} ke no types 1 2
  fix  swp fe atom/swap 1 1 8487327 987 ke no types 1 2
  thermo  1000
  thermo_style custom step  pe f_swp[1] f_swp[2] v_rfet3 v_rfeo3
  run  ${nsteps}
  run  3624
WARNING: No fixes with time integration, atoms won't move (../verlet.cpp:60)
  generated 3 of 3 mixed pair_coeff terms from geometric mixing rule
Per MPI rank memory allocation (min/avg/max) = 8.79 | 9.219 | 9.553 Mbytes
Step PotEng f_swp[1] f_swp[2] v_rfet3 v_rfeo3 
   47112   -287196.72            0            0            1   0.81944444 
   48000    -287193.9          888            4            1   0.81944444 
   49000   -287188.83         1888           11            1   0.81944444 
   50000   -287200.99         2888           17            1   0.81944444 
   50736   -287206.35         3624           22            1   0.81944444 
Loop time of 48.1266 on 8 procs for 3624 steps with 1466 atoms

Performance: 6.506 ns/day, 3.689 hours/ns, 75.301 timesteps/s
98.5% CPU use with 8 MPI tasks x no OpenMP threads

MPI task timing breakdown:
Section |  min time  |  avg time  |  max time  |%varavg| %total
---------------------------------------------------------------
Pair    | 2.8326     | 5.5505     | 8.1681     |  80.6 | 11.53
Bond    | 0.00022018 | 0.00027412 | 0.00031581 |   0.0 |  0.00
Neigh   | 1.9387     | 2.7495     | 3.5393     |  33.7 |  5.71
Comm    | 1.0683     | 4.4064     | 7.8537     | 114.2 |  9.16
Output  | 0.00051805 | 0.00055694 | 0.00080519 |   0.0 |  0.00
Modify  | 35.34      | 35.41      | 35.491     |   1.0 | 73.58
Other   |            | 0.009535   |            |       |  0.02

Nlocal:         183.25 ave         190 max         178 min
Histogram: 1 0 0 0 6 0 0 0 0 1
Nghost:        1282.75 ave        1288 max        1276 min
Histogram: 1 0 0 0 0 6 0 0 0 1
Neighs:         134218 ave      198643 max       68048 min
Histogram: 1 1 1 1 0 0 1 0 2 1
FullNghs:       268436 ave      278325 max      260745 min
Histogram: 1 0 0 0 6 0 0 0 0 1

Total # of neighbors = 2147490
Ave neighs/atom = 1464.8636
Ave special neighs/atom = 0
Neighbor list builds = 7248
Dangerous builds = 0

 # variable cnum equal (${cnum}-1)

  unfix swp

next temp
jump SELF temp_loop

  variable ftemp equal v_temp

  # Electrostatic relaxation-long
  fix  swp fe atom/swap 1 1 ${rand} ${temp} ke no types 1 2
  fix  swp fe atom/swap 1 1 8505477 ${temp} ke no types 1 2
  fix  swp fe atom/swap 1 1 8505477 986 ke no types 1 2
  thermo  1000
  thermo_style custom step  pe f_swp[1] f_swp[2] v_rfet3 v_rfeo3
  run  ${nsteps}
  run  3624
WARNING: No fixes with time integration, atoms won't move (../verlet.cpp:60)
  generated 3 of 3 mixed pair_coeff terms from geometric mixing rule
Per MPI rank memory allocation (min/avg/max) = 8.79 | 9.219 | 9.553 Mbytes
Step PotEng f_swp[1] f_swp[2] v_rfet3 v_rfeo3 
   50736   -287206.35            0            0            1   0.81944444 
   51000   -287206.35          264            0            1   0.81944444 
   52000   -287210.66         1264           11            1   0.81944444 
   53000   -287210.66         2264           11            1   0.81944444 
   54000    -287210.6         3264           12            1   0.81944444 
   54360   -287211.25         3624           13            1   0.81944444 
Loop time of 47.1945 on 8 procs for 3624 steps with 1466 atoms

Performance: 6.635 ns/day, 3.617 hours/ns, 76.789 timesteps/s
99.0% CPU use with 8 MPI tasks x no OpenMP threads

MPI task timing breakdown:
Section |  min time  |  avg time  |  max time  |%varavg| %total
---------------------------------------------------------------
Pair    | 2.8443     | 5.5445     | 8.1733     |  80.6 | 11.75
Bond    | 0.00022576 | 0.00026567 | 0.00031133 |   0.0 |  0.00
Neigh   | 1.9536     | 2.7455     | 3.5347     |  33.4 |  5.82
Comm    | 0.69137    | 4.0915     | 7.5586     | 120.5 |  8.67
Output  | 0.00016346 | 0.00021039 | 0.00043826 |   0.0 |  0.00
Modify  | 34.781     | 34.803     | 34.828     |   0.3 | 73.74
Other   |            | 0.009211   |            |       |  0.02

Nlocal:         183.25 ave         190 max         178 min
Histogram: 1 0 0 0 6 0 0 0 0 1
Nghost:        1282.75 ave        1288 max        1276 min
Histogram: 1 0 0 0 0 6 0 0 0 1
Neighs:         134218 ave      198643 max       68048 min
Histogram: 1 1 1 1 0 0 1 0 2 1
FullNghs:       268436 ave      278325 max      260745 min
Histogram: 1 0 0 0 6 0 0 0 0 1

Total # of neighbors = 2147490
Ave neighs/atom = 1464.8636
Ave special neighs/atom = 0
Neighbor list builds = 7248
Dangerous builds = 0

 # variable cnum equal (${cnum}-1)

  unfix swp

next temp
jump SELF temp_loop

  variable ftemp equal v_temp

  # Electrostatic relaxation-long
  fix  swp fe atom/swap 1 1 ${rand} ${temp} ke no types 1 2
  fix  swp fe atom/swap 1 1 980195 ${temp} ke no types 1 2
  fix  swp fe atom/swap 1 1 980195 985 ke no types 1 2
  thermo  1000
  thermo_style custom step  pe f_swp[1] f_swp[2] v_rfet3 v_rfeo3
  run  ${nsteps}
  run  3624
WARNING: No fixes with time integration, atoms won't move (../verlet.cpp:60)
  generated 3 of 3 mixed pair_coeff terms from geometric mixing rule
Per MPI rank memory allocation (min/avg/max) = 8.79 | 9.219 | 9.553 Mbytes
Step PotEng f_swp[1] f_swp[2] v_rfet3 v_rfeo3 
   54360   -287211.25            0            0            1   0.81944444 
   55000   -287228.13          640            3            1   0.81944444 
   56000   -287228.13         1640            3            1   0.81944444 
   57000   -287228.13         2640            3            1   0.81944444 
   57984   -287218.54         3624            9            1   0.81944444 
Loop time of 47.4862 on 8 procs for 3624 steps with 1466 atoms

Performance: 6.594 ns/day, 3.640 hours/ns, 76.317 timesteps/s
98.9% CPU use with 8 MPI tasks x no OpenMP threads

MPI task timing breakdown:
Section |  min time  |  avg time  |  max time  |%varavg| %total
---------------------------------------------------------------
Pair    | 2.8229     | 5.5403     | 8.1677     |  80.8 | 11.67
Bond    | 0.00022448 | 0.00026709 | 0.00030401 |   0.0 |  0.00
Neigh   | 1.9423     | 2.7459     | 3.5397     |  33.4 |  5.78
Comm    | 0.79225    | 4.1968     | 7.6926     | 119.1 |  8.84
Output  | 0.00010947 | 0.00013671 | 0.0002984  |   0.0 |  0.00
Modify  | 34.973     | 34.993     | 35.019     |   0.3 | 73.69
Other   |            | 0.009233   |            |       |  0.02

Nlocal:         183.25 ave         190 max         178 min
Histogram: 1 0 0 0 6 0 0 0 0 1
Nghost:        1282.75 ave        1288 max        1276 min
Histogram: 1 0 0 0 0 6 0 0 0 1
Neighs:         134218 ave      198643 max       68048 min
Histogram: 1 1 1 1 0 0 1 0 2 1
FullNghs:       268436 ave      278325 max      260745 min
Histogram: 1 0 0 0 6 0 0 0 0 1

Total # of neighbors = 2147490
Ave neighs/atom = 1464.8636
Ave special neighs/atom = 0
Neighbor list builds = 7248
Dangerous builds = 0

 # variable cnum equal (${cnum}-1)

  unfix swp

next temp
jump SELF temp_loop

  variable ftemp equal v_temp

  # Electrostatic relaxation-long
  fix  swp fe atom/swap 1 1 ${rand} ${temp} ke no types 1 2
  fix  swp fe atom/swap 1 1 2065900 ${temp} ke no types 1 2
  fix  swp fe atom/swap 1 1 2065900 984 ke no types 1 2
  thermo  1000
  thermo_style custom step  pe f_swp[1] f_swp[2] v_rfet3 v_rfeo3
  run  ${nsteps}
  run  3624
WARNING: No fixes with time integration, atoms won't move (../verlet.cpp:60)
  generated 3 of 3 mixed pair_coeff terms from geometric mixing rule
Per MPI rank memory allocation (min/avg/max) = 8.79 | 9.219 | 9.553 Mbytes
Step PotEng f_swp[1] f_swp[2] v_rfet3 v_rfeo3 
   57984   -287218.54            0            0            1   0.81944444 
   58000   -287218.54           16            0            1   0.81944444 
   59000    -287212.5         1016            2            1   0.81944444 
   60000    -287216.8         2016            3            1   0.81944444 
   61000   -287212.77         3016            9            1   0.81944444 
   61608   -287207.43         3624           11            1   0.81944444 
Loop time of 46.3298 on 8 procs for 3624 steps with 1466 atoms

Performance: 6.758 ns/day, 3.551 hours/ns, 78.222 timesteps/s
99.3% CPU use with 8 MPI tasks x no OpenMP threads

MPI task timing breakdown:
Section |  min time  |  avg time  |  max time  |%varavg| %total
---------------------------------------------------------------
Pair    | 2.8274     | 5.509      | 8.1004     |  80.2 | 11.89
Bond    | 0.000207   | 0.00025899 | 0.00035727 |   0.0 |  0.00
Neigh   | 1.9477     | 2.7419     | 3.5201     |  33.4 |  5.92
Comm    | 0.4745     | 3.8353     | 7.3031     | 124.0 |  8.28
Output  | 0.00053178 | 0.00057672 | 0.00081706 |   0.0 |  0.00
Modify  | 34.225     | 34.234     | 34.242     |   0.1 | 73.89
Other   |            | 0.008905   |            |       |  0.02

Nlocal:         183.25 ave         190 max         178 min
Histogram: 1 0 0 0 6 0 0 0 0 1
Nghost:        1282.75 ave        1288 max        1276 min
Histogram: 1 0 0 0 0 6 0 0 0 1
Neighs:         134218 ave      198643 max       68048 min
Histogram: 1 1 1 1 0 0 1 0 2 1
FullNghs:       268436 ave      278325 max      260745 min
Histogram: 1 0 0 0 6 0 0 0 0 1

Total # of neighbors = 2147490
Ave neighs/atom = 1464.8636
Ave special neighs/atom = 0
Neighbor list builds = 7248
Dangerous builds = 0

 # variable cnum equal (${cnum}-1)

  unfix swp

next temp
jump SELF temp_loop

  variable ftemp equal v_temp

  # Electrostatic relaxation-long
  fix  swp fe atom/swap 1 1 ${rand} ${temp} ke no types 1 2
  fix  swp fe atom/swap 1 1 5185835 ${temp} ke no types 1 2
  fix  swp fe atom/swap 1 1 5185835 983 ke no types 1 2
  thermo  1000
  thermo_style custom step  pe f_swp[1] f_swp[2] v_rfet3 v_rfeo3
  run  ${nsteps}
  run  3624
WARNING: No fixes with time integration, atoms won't move (../verlet.cpp:60)
  generated 3 of 3 mixed pair_coeff terms from geometric mixing rule
Per MPI rank memory allocation (min/avg/max) = 8.79 | 9.219 | 9.553 Mbytes
Step PotEng f_swp[1] f_swp[2] v_rfet3 v_rfeo3 
   61608   -287207.43            0            0            1   0.81944444 
   62000   -287207.43          392            0            1   0.81944444 
   63000   -287200.68         1392            4   0.99411765   0.82175926 
   64000   -287206.78         2392           12            1   0.81944444 
   65000   -287201.71         3392           15            1   0.81944444 
   65232   -287201.71         3624           15            1   0.81944444 
Loop time of 46.006 on 8 procs for 3624 steps with 1466 atoms

Performance: 6.806 ns/day, 3.526 hours/ns, 78.772 timesteps/s
99.6% CPU use with 8 MPI tasks x no OpenMP threads

MPI task timing breakdown:
Section |  min time  |  avg time  |  max time  |%varavg| %total
---------------------------------------------------------------
Pair    | 2.8217     | 5.4868     | 8.0914     |  80.1 | 11.93
Bond    | 0.00020204 | 0.00025772 | 0.00034204 |   0.0 |  0.00
Neigh   | 1.9409     | 2.7299     | 3.5182     |  33.2 |  5.93
Comm    | 0.34324    | 3.7392     | 7.1959     | 125.5 |  8.13
Output  | 0.00012541 | 0.00016832 | 0.00041194 |   0.0 |  0.00
Modify  | 34.037     | 34.041     | 34.045     |   0.1 | 73.99
Other   |            | 0.008551   |            |       |  0.02

Nlocal:         183.25 ave         190 max         178 min
Histogram: 1 0 0 0 6 0 0 0 0 1
Nghost:        1282.75 ave        1288 max        1276 min
Histogram: 1 0 0 0 0 6 0 0 0 1
Neighs:         134218 ave      198643 max       68048 min
Histogram: 1 1 1 1 0 0 1 0 2 1
FullNghs:       268436 ave      278325 max      260745 min
Histogram: 1 0 0 0 6 0 0 0 0 1

Total # of neighbors = 2147490
Ave neighs/atom = 1464.8636
Ave special neighs/atom = 0
Neighbor list builds = 7248
Dangerous builds = 0

 # variable cnum equal (${cnum}-1)

  unfix swp

next temp
jump SELF temp_loop

  variable ftemp equal v_temp

  # Electrostatic relaxation-long
  fix  swp fe atom/swap 1 1 ${rand} ${temp} ke no types 1 2
  fix  swp fe atom/swap 1 1 3359353 ${temp} ke no types 1 2
  fix  swp fe atom/swap 1 1 3359353 982 ke no types 1 2
  thermo  1000
  thermo_style custom step  pe f_swp[1] f_swp[2] v_rfet3 v_rfeo3
  run  ${nsteps}
  run  3624
WARNING: No fixes with time integration, atoms won't move (../verlet.cpp:60)
  generated 3 of 3 mixed pair_coeff terms from geometric mixing rule
Per MPI rank memory allocation (min/avg/max) = 8.79 | 9.219 | 9.553 Mbytes
Step PotEng f_swp[1] f_swp[2] v_rfet3 v_rfeo3 
   65232   -287201.71            0            0            1   0.81944444 
   66000   -287207.18          768            2            1   0.81944444 
   67000   -287204.27         1768            4            1   0.81944444 
   68000   -287210.75         2768            8            1   0.81944444 
   68856   -287201.02         3624           11   0.99411765   0.82175926 
Loop time of 46.1179 on 8 procs for 3624 steps with 1466 atoms

Performance: 6.789 ns/day, 3.535 hours/ns, 78.581 timesteps/s
99.5% CPU use with 8 MPI tasks x no OpenMP threads

MPI task timing breakdown:
Section |  min time  |  avg time  |  max time  |%varavg| %total
---------------------------------------------------------------
Pair    | 2.8207     | 5.4877     | 8.0888     |  80.1 | 11.90
Bond    | 0.00020559 | 0.00025166 | 0.00034861 |   0.0 |  0.00
Neigh   | 1.9427     | 2.7312     | 3.5285     |  33.2 |  5.92
Comm    | 0.38651    | 3.7675     | 7.2047     | 124.1 |  8.17
Output  | 0.00010221 | 0.00013653 | 0.00033589 |   0.0 |  0.00
Modify  | 34.105     | 34.122     | 34.141     |   0.3 | 73.99
Other   |            | 0.008674   |            |       |  0.02

Nlocal:         183.25 ave         190 max         178 min
Histogram: 1 0 0 0 6 0 0 0 0 1
Nghost:        1282.75 ave        1288 max        1276 min
Histogram: 1 0 0 0 0 6 0 0 0 1
Neighs:         134218 ave      198643 max       68048 min
Histogram: 1 1 1 1 0 0 1 0 2 1
FullNghs:       268436 ave      278325 max      260745 min
Histogram: 1 0 0 0 6 0 0 0 0 1

Total # of neighbors = 2147490
Ave neighs/atom = 1464.8636
Ave special neighs/atom = 0
Neighbor list builds = 7248
Dangerous builds = 0

 # variable cnum equal (${cnum}-1)

  unfix swp

next temp
jump SELF temp_loop

  variable ftemp equal v_temp

  # Electrostatic relaxation-long
  fix  swp fe atom/swap 1 1 ${rand} ${temp} ke no types 1 2
  fix  swp fe atom/swap 1 1 6806545 ${temp} ke no types 1 2
  fix  swp fe atom/swap 1 1 6806545 981 ke no types 1 2
  thermo  1000
  thermo_style custom step  pe f_swp[1] f_swp[2] v_rfet3 v_rfeo3
  run  ${nsteps}
  run  3624
WARNING: No fixes with time integration, atoms won't move (../verlet.cpp:60)
  generated 3 of 3 mixed pair_coeff terms from geometric mixing rule
Per MPI rank memory allocation (min/avg/max) = 8.79 | 9.219 | 9.553 Mbytes
Step PotEng f_swp[1] f_swp[2] v_rfet3 v_rfeo3 
   68856   -287201.02            0            0   0.99411765   0.82175926 
   69000   -287201.02          144            0   0.99411765   0.82175926 
   70000   -287213.77         1144            5   0.99411765   0.82175926 
   71000   -287212.43         2144            7   0.99411765   0.82175926 
   72000   -287214.35         3144            8   0.99411765   0.82175926 
   72480   -287210.15         3624           10   0.99411765   0.82175926 
Loop time of 46.0485 on 8 procs for 3624 steps with 1466 atoms

Performance: 6.800 ns/day, 3.530 hours/ns, 78.700 timesteps/s
99.6% CPU use with 8 MPI tasks x no OpenMP threads

MPI task timing breakdown:
Section |  min time  |  avg time  |  max time  |%varavg| %total
---------------------------------------------------------------
Pair    | 2.8176     | 5.4842     | 8.0811     |  80.0 | 11.91
Bond    | 0.00020741 | 0.00025577 | 0.00035067 |   0.0 |  0.00
Neigh   | 1.9422     | 2.7267     | 3.5148     |  33.0 |  5.92
Comm    | 0.36996    | 3.7412     | 7.1729     | 124.4 |  8.12
Output  | 0.00053348 | 0.00057251 | 0.00077626 |   0.0 |  0.00
Modify  | 34.072     | 34.087     | 34.106     |   0.2 | 74.02
Other   |            | 0.00864    |            |       |  0.02

Nlocal:         183.25 ave         190 max         178 min
Histogram: 1 0 0 0 6 0 0 0 0 1
Nghost:        1282.75 ave        1288 max        1276 min
Histogram: 1 0 0 0 0 6 0 0 0 1
Neighs:         134218 ave      198643 max       68048 min
Histogram: 1 1 1 1 0 0 1 0 2 1
FullNghs:       268436 ave      278325 max      260745 min
Histogram: 1 0 0 0 6 0 0 0 0 1

Total # of neighbors = 2147490
Ave neighs/atom = 1464.8636
Ave special neighs/atom = 0
Neighbor list builds = 7248
Dangerous builds = 0

 # variable cnum equal (${cnum}-1)

  unfix swp

next temp
jump SELF temp_loop

  variable ftemp equal v_temp

  # Electrostatic relaxation-long
  fix  swp fe atom/swap 1 1 ${rand} ${temp} ke no types 1 2
  fix  swp fe atom/swap 1 1 594805 ${temp} ke no types 1 2
  fix  swp fe atom/swap 1 1 594805 980 ke no types 1 2
  thermo  1000
  thermo_style custom step  pe f_swp[1] f_swp[2] v_rfet3 v_rfeo3
  run  ${nsteps}
  run  3624
WARNING: No fixes with time integration, atoms won't move (../verlet.cpp:60)
  generated 3 of 3 mixed pair_coeff terms from geometric mixing rule
Per MPI rank memory allocation (min/avg/max) = 8.79 | 9.219 | 9.553 Mbytes
Step PotEng f_swp[1] f_swp[2] v_rfet3 v_rfeo3 
   72480   -287210.15            0            0   0.99411765   0.82175926 
   73000    -287208.8          520            1   0.99411765   0.82175926 
   74000    -287211.6         1520            3   0.99411765   0.82175926 
   75000   -287208.67         2520            6   0.99411765   0.82175926 
   76000   -287201.92         3520           11            1   0.81944444 
   76104   -287210.95         3624           12            1   0.81944444 
Loop time of 46.4076 on 8 procs for 3624 steps with 1466 atoms

Performance: 6.747 ns/day, 3.557 hours/ns, 78.091 timesteps/s
99.4% CPU use with 8 MPI tasks x no OpenMP threads

MPI task timing breakdown:
Section |  min time  |  avg time  |  max time  |%varavg| %total
---------------------------------------------------------------
Pair    | 2.8183     | 5.4893     | 8.0787     |  79.9 | 11.83
Bond    | 0.00021956 | 0.00025407 | 0.00035123 |   0.0 |  0.00
Neigh   | 1.9422     | 2.7292     | 3.5139     |  32.9 |  5.88
Comm    | 0.51454    | 3.8625     | 7.2915     | 121.6 |  8.32
Output  | 0.00012368 | 0.0001611  | 0.00036414 |   0.0 |  0.00
Modify  | 34.291     | 34.318     | 34.346     |   0.4 | 73.95
Other   |            | 0.008685   |            |       |  0.02

Nlocal:         183.25 ave         190 max         178 min
Histogram: 1 0 0 0 6 0 0 0 0 1
Nghost:        1282.75 ave        1288 max        1276 min
Histogram: 1 0 0 0 0 6 0 0 0 1
Neighs:         134218 ave      198643 max       68048 min
Histogram: 1 1 1 1 0 0 1 0 2 1
FullNghs:       268436 ave      278325 max      260745 min
Histogram: 1 0 0 0 6 0 0 0 0 1

Total # of neighbors = 2147490
Ave neighs/atom = 1464.8636
Ave special neighs/atom = 0
Neighbor list builds = 7248
Dangerous builds = 0

 # variable cnum equal (${cnum}-1)

  unfix swp

next temp
jump SELF temp_loop

  variable ftemp equal v_temp

  # Electrostatic relaxation-long
  fix  swp fe atom/swap 1 1 ${rand} ${temp} ke no types 1 2
  fix  swp fe atom/swap 1 1 3129163 ${temp} ke no types 1 2
  fix  swp fe atom/swap 1 1 3129163 979 ke no types 1 2
  thermo  1000
  thermo_style custom step  pe f_swp[1] f_swp[2] v_rfet3 v_rfeo3
  run  ${nsteps}
  run  3624
WARNING: No fixes with time integration, atoms won't move (../verlet.cpp:60)
  generated 3 of 3 mixed pair_coeff terms from geometric mixing rule
Per MPI rank memory allocation (min/avg/max) = 8.79 | 9.219 | 9.553 Mbytes
Step PotEng f_swp[1] f_swp[2] v_rfet3 v_rfeo3 
   76104   -287210.95            0            0            1   0.81944444 
   77000   -287214.86          896            2            1   0.81944444 
   78000   -287211.69         1896            3            1   0.81944444 
   79000   -287219.34         2896            6            1   0.81944444 
   79728   -287224.29         3624            8            1   0.81944444 
Loop time of 46.0131 on 8 procs for 3624 steps with 1466 atoms

Performance: 6.805 ns/day, 3.527 hours/ns, 78.760 timesteps/s
99.6% CPU use with 8 MPI tasks x no OpenMP threads

MPI task timing breakdown:
Section |  min time  |  avg time  |  max time  |%varavg| %total
---------------------------------------------------------------
Pair    | 2.8197     | 5.4855     | 8.0834     |  79.8 | 11.92
Bond    | 0.00021579 | 0.0002577  | 0.00038063 |   0.0 |  0.00
Neigh   | 1.9429     | 2.7307     | 3.5167     |  32.9 |  5.93
Comm    | 0.36723    | 3.7441     | 7.1898     | 124.4 |  8.14
Output  | 0.00010138 | 0.00013592 | 0.00032703 |   0.0 |  0.00
Modify  | 34.036     | 34.044     | 34.052     |   0.1 | 73.99
Other   |            | 0.00859    |            |       |  0.02

Nlocal:         183.25 ave         190 max         178 min
Histogram: 1 0 0 0 6 0 0 0 0 1
Nghost:        1282.75 ave        1288 max        1276 min
Histogram: 1 0 0 0 0 6 0 0 0 1
Neighs:         134218 ave      198643 max       68048 min
Histogram: 1 1 1 1 0 0 1 0 2 1
FullNghs:       268436 ave      278325 max      260745 min
Histogram: 1 0 0 0 6 0 0 0 0 1

Total # of neighbors = 2147490
Ave neighs/atom = 1464.8636
Ave special neighs/atom = 0
Neighbor list builds = 7248
Dangerous builds = 0

 # variable cnum equal (${cnum}-1)

  unfix swp

next temp
jump SELF temp_loop

  variable ftemp equal v_temp

  # Electrostatic relaxation-long
  fix  swp fe atom/swap 1 1 ${rand} ${temp} ke no types 1 2
  fix  swp fe atom/swap 1 1 8397505 ${temp} ke no types 1 2
  fix  swp fe atom/swap 1 1 8397505 978 ke no types 1 2
  thermo  1000
  thermo_style custom step  pe f_swp[1] f_swp[2] v_rfet3 v_rfeo3
  run  ${nsteps}
  run  3624
WARNING: No fixes with time integration, atoms won't move (../verlet.cpp:60)
  generated 3 of 3 mixed pair_coeff terms from geometric mixing rule
Per MPI rank memory allocation (min/avg/max) = 8.79 | 9.219 | 9.553 Mbytes
Step PotEng f_swp[1] f_swp[2] v_rfet3 v_rfeo3 
   79728   -287224.29            0            0            1   0.81944444 
   80000   -287224.29          272            0            1   0.81944444 
   81000   -287218.55         1272            2            1   0.81944444 
   82000   -287208.46         2272            5            1   0.81944444 
   83000   -287212.46         3272            7            1   0.81944444 
   83352   -287212.46         3624            7            1   0.81944444 
Loop time of 47.7857 on 8 procs for 3624 steps with 1466 atoms

Performance: 6.552 ns/day, 3.663 hours/ns, 75.839 timesteps/s
98.6% CPU use with 8 MPI tasks x no OpenMP threads

MPI task timing breakdown:
Section |  min time  |  avg time  |  max time  |%varavg| %total
---------------------------------------------------------------
Pair    | 2.8587     | 5.5483     | 8.1475     |  80.3 | 11.61
Bond    | 0.00023126 | 0.00026932 | 0.0003578  |   0.0 |  0.00
Neigh   | 1.9573     | 2.7542     | 3.5438     |  33.1 |  5.76
Comm    | 0.94904    | 4.2733     | 7.7092     | 115.7 |  8.94
Output  | 0.00054919 | 0.00059664 | 0.00086243 |   0.0 |  0.00
Modify  | 35.135     | 35.2       | 35.252     |   0.9 | 73.66
Other   |            | 0.009418   |            |       |  0.02

Nlocal:         183.25 ave         190 max         178 min
Histogram: 1 0 0 0 6 0 0 0 0 1
Nghost:        1282.75 ave        1288 max        1276 min
Histogram: 1 0 0 0 0 6 0 0 0 1
Neighs:         134218 ave      198643 max       68048 min
Histogram: 1 1 1 1 0 0 1 0 2 1
FullNghs:       268436 ave      278325 max      260745 min
Histogram: 1 0 0 0 6 0 0 0 0 1

Total # of neighbors = 2147490
Ave neighs/atom = 1464.8636
Ave special neighs/atom = 0
Neighbor list builds = 7248
Dangerous builds = 0

 # variable cnum equal (${cnum}-1)

  unfix swp

next temp
jump SELF temp_loop

  variable ftemp equal v_temp

  # Electrostatic relaxation-long
  fix  swp fe atom/swap 1 1 ${rand} ${temp} ke no types 1 2
  fix  swp fe atom/swap 1 1 7746391 ${temp} ke no types 1 2
  fix  swp fe atom/swap 1 1 7746391 977 ke no types 1 2
  thermo  1000
  thermo_style custom step  pe f_swp[1] f_swp[2] v_rfet3 v_rfeo3
  run  ${nsteps}
  run  3624
WARNING: No fixes with time integration, atoms won't move (../verlet.cpp:60)
  generated 3 of 3 mixed pair_coeff terms from geometric mixing rule
Per MPI rank memory allocation (min/avg/max) = 8.79 | 9.219 | 9.553 Mbytes
Step PotEng f_swp[1] f_swp[2] v_rfet3 v_rfeo3 
   83352   -287212.46            0            0            1   0.81944444 
   84000   -287211.28          648            1            1   0.81944444 
   85000   -287207.37         1648            5            1   0.81944444 
   86000   -287212.06         2648           10   0.99411765   0.82175926 
   86976    -287224.1         3624           15   0.99411765   0.82175926 
Loop time of 46.9095 on 8 procs for 3624 steps with 1466 atoms

Performance: 6.675 ns/day, 3.596 hours/ns, 77.255 timesteps/s
99.1% CPU use with 8 MPI tasks x no OpenMP threads

MPI task timing breakdown:
Section |  min time  |  avg time  |  max time  |%varavg| %total
---------------------------------------------------------------
Pair    | 2.8493     | 5.5277     | 8.1359     |  80.3 | 11.78
Bond    | 0.00023961 | 0.0002672  | 0.00035196 |   0.0 |  0.00
Neigh   | 1.9617     | 2.7463     | 3.5363     |  33.2 |  5.85
Comm    | 0.60416    | 3.9709     | 7.3992     | 121.1 |  8.47
Output  | 0.00011086 | 0.00014198 | 0.00034238 |   0.0 |  0.00
Modify  | 34.623     | 34.655     | 34.687     |   0.4 | 73.88
Other   |            | 0.009412   |            |       |  0.02

Nlocal:         183.25 ave         190 max         178 min
Histogram: 1 0 0 0 6 0 0 0 0 1
Nghost:        1282.75 ave        1288 max        1276 min
Histogram: 1 0 0 0 0 6 0 0 0 1
Neighs:         134218 ave      198643 max       68048 min
Histogram: 1 1 1 1 0 0 1 0 2 1
FullNghs:       268436 ave      278325 max      260745 min
Histogram: 1 0 0 0 6 0 0 0 0 1

Total # of neighbors = 2147490
Ave neighs/atom = 1464.8636
Ave special neighs/atom = 0
Neighbor list builds = 7248
Dangerous builds = 0

 # variable cnum equal (${cnum}-1)

  unfix swp

next temp
jump SELF temp_loop

  variable ftemp equal v_temp

  # Electrostatic relaxation-long
  fix  swp fe atom/swap 1 1 ${rand} ${temp} ke no types 1 2
  fix  swp fe atom/swap 1 1 6520128 ${temp} ke no types 1 2
  fix  swp fe atom/swap 1 1 6520128 976 ke no types 1 2
  thermo  1000
  thermo_style custom step  pe f_swp[1] f_swp[2] v_rfet3 v_rfeo3
  run  ${nsteps}
  run  3624
WARNING: No fixes with time integration, atoms won't move (../verlet.cpp:60)
  generated 3 of 3 mixed pair_coeff terms from geometric mixing rule
Per MPI rank memory allocation (min/avg/max) = 8.79 | 9.219 | 9.553 Mbytes
Step PotEng f_swp[1] f_swp[2] v_rfet3 v_rfeo3 
   86976    -287224.1            0            0   0.99411765   0.82175926 
   87000    -287224.1           24            0   0.99411765   0.82175926 
   88000    -287224.1         1024            0   0.99411765   0.82175926 
   89000   -287219.84         2024            5   0.99411765   0.82175926 
   90000    -287213.4         3024            9   0.99411765   0.82175926 
   90600   -287216.52         3624           11   0.99411765   0.82175926 
Loop time of 47.3702 on 8 procs for 3624 steps with 1466 atoms

Performance: 6.610 ns/day, 3.631 hours/ns, 76.504 timesteps/s
98.9% CPU use with 8 MPI tasks x no OpenMP threads

MPI task timing breakdown:
Section |  min time  |  avg time  |  max time  |%varavg| %total
---------------------------------------------------------------
Pair    | 2.8655     | 5.5363     | 8.1554     |  80.5 | 11.69
Bond    | 0.00023184 | 0.00027343 | 0.0003139  |   0.0 |  0.00
Neigh   | 1.9469     | 2.7453     | 3.5491     |  33.5 |  5.80
Comm    | 0.76431    | 4.1318     | 7.5201     | 117.6 |  8.72
Output  | 0.00059727 | 0.00067921 | 0.0008812  |   0.0 |  0.00
Modify  | 34.88      | 34.947     | 35.027     |   1.0 | 73.77
Other   |            | 0.009153   |            |       |  0.02

Nlocal:         183.25 ave         190 max         178 min
Histogram: 1 0 0 0 6 0 0 0 0 1
Nghost:        1282.75 ave        1288 max        1276 min
Histogram: 1 0 0 0 0 6 0 0 0 1
Neighs:         134218 ave      198643 max       68048 min
Histogram: 1 1 1 1 0 0 1 0 2 1
FullNghs:       268436 ave      278325 max      260745 min
Histogram: 1 0 0 0 6 0 0 0 0 1

Total # of neighbors = 2147490
Ave neighs/atom = 1464.8636
Ave special neighs/atom = 0
Neighbor list builds = 7248
Dangerous builds = 0

 # variable cnum equal (${cnum}-1)

  unfix swp

next temp
jump SELF temp_loop

  variable ftemp equal v_temp

  # Electrostatic relaxation-long
  fix  swp fe atom/swap 1 1 ${rand} ${temp} ke no types 1 2
  fix  swp fe atom/swap 1 1 4419602 ${temp} ke no types 1 2
  fix  swp fe atom/swap 1 1 4419602 975 ke no types 1 2
  thermo  1000
  thermo_style custom step  pe f_swp[1] f_swp[2] v_rfet3 v_rfeo3
  run  ${nsteps}
  run  3624
WARNING: No fixes with time integration, atoms won't move (../verlet.cpp:60)
  generated 3 of 3 mixed pair_coeff terms from geometric mixing rule
Per MPI rank memory allocation (min/avg/max) = 8.79 | 9.219 | 9.553 Mbytes
Step PotEng f_swp[1] f_swp[2] v_rfet3 v_rfeo3 
   90600   -287216.52            0            0   0.99411765   0.82175926 
   91000   -287216.52          400            0   0.99411765   0.82175926 
   92000   -287213.51         1400            4            1   0.81944444 
   93000   -287214.17         2400            8            1   0.81944444 
   94000    -287214.2         3400           11            1   0.81944444 
   94224    -287214.2         3624           11            1   0.81944444 
Loop time of 47.5766 on 8 procs for 3624 steps with 1466 atoms

Performance: 6.581 ns/day, 3.647 hours/ns, 76.172 timesteps/s
98.8% CPU use with 8 MPI tasks x no OpenMP threads

MPI task timing breakdown:
Section |  min time  |  avg time  |  max time  |%varavg| %total
---------------------------------------------------------------
Pair    | 2.8304     | 5.5397     | 8.183      |  80.9 | 11.64
Bond    | 0.00021239 | 0.00027466 | 0.0003508  |   0.0 |  0.00
Neigh   | 1.9513     | 2.7523     | 3.5428     |  33.4 |  5.79
Comm    | 0.83494    | 4.1976     | 7.6357     | 117.4 |  8.82
Output  | 0.00014708 | 0.00018611 | 0.00043752 |   0.0 |  0.00
Modify  | 35.005     | 35.077     | 35.15      |   0.9 | 73.73
Other   |            | 0.009219   |            |       |  0.02

Nlocal:         183.25 ave         190 max         178 min
Histogram: 1 0 0 0 6 0 0 0 0 1
Nghost:        1282.75 ave        1288 max        1276 min
Histogram: 1 0 0 0 0 6 0 0 0 1
Neighs:         134218 ave      198643 max       68048 min
Histogram: 1 1 1 1 0 0 1 0 2 1
FullNghs:       268436 ave      278325 max      260745 min
Histogram: 1 0 0 0 6 0 0 0 0 1

Total # of neighbors = 2147490
Ave neighs/atom = 1464.8636
Ave special neighs/atom = 0
Neighbor list builds = 7248
Dangerous builds = 0

 # variable cnum equal (${cnum}-1)

  unfix swp

next temp
jump SELF temp_loop

  variable ftemp equal v_temp

  # Electrostatic relaxation-long
  fix  swp fe atom/swap 1 1 ${rand} ${temp} ke no types 1 2
  fix  swp fe atom/swap 1 1 2199081 ${temp} ke no types 1 2
  fix  swp fe atom/swap 1 1 2199081 974 ke no types 1 2
  thermo  1000
  thermo_style custom step  pe f_swp[1] f_swp[2] v_rfet3 v_rfeo3
  run  ${nsteps}
  run  3624
WARNING: No fixes with time integration, atoms won't move (../verlet.cpp:60)
  generated 3 of 3 mixed pair_coeff terms from geometric mixing rule
Per MPI rank memory allocation (min/avg/max) = 8.79 | 9.219 | 9.553 Mbytes
Step PotEng f_swp[1] f_swp[2] v_rfet3 v_rfeo3 
   94224    -287214.2            0            0            1   0.81944444 
   95000   -287211.79          776            1            1   0.81944444 
   96000   -287211.78         1776            4            1   0.81944444 
   97000   -287218.91         2776           14            1   0.81944444 
   97848   -287215.07         3624           19            1   0.81944444 
Loop time of 47.1111 on 8 procs for 3624 steps with 1466 atoms

Performance: 6.646 ns/day, 3.611 hours/ns, 76.925 timesteps/s
98.8% CPU use with 8 MPI tasks x no OpenMP threads

MPI task timing breakdown:
Section |  min time  |  avg time  |  max time  |%varavg| %total
---------------------------------------------------------------
Pair    | 2.8436     | 5.543      | 8.1767     |  80.3 | 11.77
Bond    | 0.00023125 | 0.00029264 | 0.00045184 |   0.0 |  0.00
Neigh   | 1.9618     | 2.7512     | 3.5498     |  33.2 |  5.84
Comm    | 0.60705    | 4.0171     | 7.4651     | 120.6 |  8.53
Output  | 0.00011568 | 0.00015132 | 0.00036108 |   0.0 |  0.00
Modify  | 34.757     | 34.79      | 34.831     |   0.4 | 73.85
Other   |            | 0.009385   |            |       |  0.02

Nlocal:         183.25 ave         190 max         178 min
Histogram: 1 0 0 0 6 0 0 0 0 1
Nghost:        1282.75 ave        1288 max        1276 min
Histogram: 1 0 0 0 0 6 0 0 0 1
Neighs:         134218 ave      198643 max       68048 min
Histogram: 1 1 1 1 0 0 1 0 2 1
FullNghs:       268436 ave      278325 max      260745 min
Histogram: 1 0 0 0 6 0 0 0 0 1

Total # of neighbors = 2147490
Ave neighs/atom = 1464.8636
Ave special neighs/atom = 0
Neighbor list builds = 7248
Dangerous builds = 0

 # variable cnum equal (${cnum}-1)

  unfix swp

next temp
jump SELF temp_loop

  variable ftemp equal v_temp

  # Electrostatic relaxation-long
  fix  swp fe atom/swap 1 1 ${rand} ${temp} ke no types 1 2
  fix  swp fe atom/swap 1 1 6067438 ${temp} ke no types 1 2
  fix  swp fe atom/swap 1 1 6067438 973 ke no types 1 2
  thermo  1000
  thermo_style custom step  pe f_swp[1] f_swp[2] v_rfet3 v_rfeo3
  run  ${nsteps}
  run  3624
WARNING: No fixes with time integration, atoms won't move (../verlet.cpp:60)
  generated 3 of 3 mixed pair_coeff terms from geometric mixing rule
Per MPI rank memory allocation (min/avg/max) = 8.79 | 9.219 | 9.553 Mbytes
Step PotEng f_swp[1] f_swp[2] v_rfet3 v_rfeo3 
   97848   -287215.07            0            0            1   0.81944444 
   98000    -287217.5          152            1            1   0.81944444 
   99000   -287213.74         1152            4            1   0.81944444 
  100000   -287217.69         2152            9   0.99411765   0.82175926 
  101000   -287223.48         3152           12            1   0.81944444 
  101472   -287223.48         3624           12            1   0.81944444 
Loop time of 47.0788 on 8 procs for 3624 steps with 1466 atoms

Performance: 6.651 ns/day, 3.609 hours/ns, 76.977 timesteps/s
98.9% CPU use with 8 MPI tasks x no OpenMP threads

MPI task timing breakdown:
Section |  min time  |  avg time  |  max time  |%varavg| %total
---------------------------------------------------------------
Pair    | 2.8127     | 5.5274     | 8.1169     |  80.3 | 11.74
Bond    | 0.00024186 | 0.00027427 | 0.00037923 |   0.0 |  0.00
Neigh   | 1.9378     | 2.7463     | 3.5268     |  33.4 |  5.83
Comm    | 0.69238    | 4.0277     | 7.5289     | 120.5 |  8.56
Output  | 0.0005904  | 0.00062709 | 0.00083757 |   0.0 |  0.00
Modify  | 34.733     | 34.768     | 34.796     |   0.4 | 73.85
Other   |            | 0.00905    |            |       |  0.02

Nlocal:         183.25 ave         190 max         178 min
Histogram: 1 0 0 0 6 0 0 0 0 1
Nghost:        1282.75 ave        1288 max        1276 min
Histogram: 1 0 0 0 0 6 0 0 0 1
Neighs:         134218 ave      198643 max       68048 min
Histogram: 1 1 1 1 0 0 1 0 2 1
FullNghs:       268436 ave      278325 max      260745 min
Histogram: 1 0 0 0 6 0 0 0 0 1

Total # of neighbors = 2147490
Ave neighs/atom = 1464.8636
Ave special neighs/atom = 0
Neighbor list builds = 7248
Dangerous builds = 0

 # variable cnum equal (${cnum}-1)

  unfix swp

next temp
jump SELF temp_loop

  variable ftemp equal v_temp

  # Electrostatic relaxation-long
  fix  swp fe atom/swap 1 1 ${rand} ${temp} ke no types 1 2
  fix  swp fe atom/swap 1 1 3316115 ${temp} ke no types 1 2
  fix  swp fe atom/swap 1 1 3316115 972 ke no types 1 2
  thermo  1000
  thermo_style custom step  pe f_swp[1] f_swp[2] v_rfet3 v_rfeo3
  run  ${nsteps}
  run  3624
WARNING: No fixes with time integration, atoms won't move (../verlet.cpp:60)
  generated 3 of 3 mixed pair_coeff terms from geometric mixing rule
Per MPI rank memory allocation (min/avg/max) = 8.79 | 9.219 | 9.553 Mbytes
Step PotEng f_swp[1] f_swp[2] v_rfet3 v_rfeo3 
  101472   -287223.48            0            0            1   0.81944444 
  102000   -287223.48          528            0            1   0.81944444 
  103000   -287228.59         1528            3            1   0.81944444 
  104000   -287227.08         2528            8            1   0.81944444 
  105000   -287227.38         3528           11            1   0.81944444 
  105096   -287227.38         3624           11            1   0.81944444 
Loop time of 47.6606 on 8 procs for 3624 steps with 1466 atoms

Performance: 6.570 ns/day, 3.653 hours/ns, 76.038 timesteps/s
99.0% CPU use with 8 MPI tasks x no OpenMP threads

MPI task timing breakdown:
Section |  min time  |  avg time  |  max time  |%varavg| %total
---------------------------------------------------------------
Pair    | 2.8182     | 5.5163     | 8.1172     |  80.4 | 11.57
Bond    | 0.00023375 | 0.00027517 | 0.00039324 |   0.0 |  0.00
Neigh   | 1.9312     | 2.7436     | 3.5428     |  33.7 |  5.76
Comm    | 0.76515    | 4.1418     | 7.6023     | 119.0 |  8.69
Output  | 0.0001364  | 0.00017902 | 0.00044143 |   0.0 |  0.00
Modify  | 35.217     | 35.25      | 35.3       |   0.4 | 73.96
Other   |            | 0.008799   |            |       |  0.02

Nlocal:         183.25 ave         190 max         178 min
Histogram: 1 0 0 0 6 0 0 0 0 1
Nghost:        1282.75 ave        1288 max        1276 min
Histogram: 1 0 0 0 0 6 0 0 0 1
Neighs:         134218 ave      198643 max       68048 min
Histogram: 1 1 1 1 0 0 1 0 2 1
FullNghs:       268436 ave      278325 max      260745 min
Histogram: 1 0 0 0 6 0 0 0 0 1

Total # of neighbors = 2147490
Ave neighs/atom = 1464.8636
Ave special neighs/atom = 0
Neighbor list builds = 7248
Dangerous builds = 0

 # variable cnum equal (${cnum}-1)

  unfix swp

next temp
jump SELF temp_loop

  variable ftemp equal v_temp

  # Electrostatic relaxation-long
  fix  swp fe atom/swap 1 1 ${rand} ${temp} ke no types 1 2
  fix  swp fe atom/swap 1 1 9343451 ${temp} ke no types 1 2
  fix  swp fe atom/swap 1 1 9343451 971 ke no types 1 2
  thermo  1000
  thermo_style custom step  pe f_swp[1] f_swp[2] v_rfet3 v_rfeo3
  run  ${nsteps}
  run  3624
WARNING: No fixes with time integration, atoms won't move (../verlet.cpp:60)
  generated 3 of 3 mixed pair_coeff terms from geometric mixing rule
Per MPI rank memory allocation (min/avg/max) = 8.79 | 9.219 | 9.553 Mbytes
Step PotEng f_swp[1] f_swp[2] v_rfet3 v_rfeo3 
  105096   -287227.38            0            0            1   0.81944444 
  106000   -287226.98          904            7            1   0.81944444 
  107000   -287234.66         1904           11            1   0.81944444 
  108000   -287234.64         2904           12            1   0.81944444 
  108720   -287223.77         3624           20            1   0.81944444 
Loop time of 46.5987 on 8 procs for 3624 steps with 1466 atoms

Performance: 6.719 ns/day, 3.572 hours/ns, 77.770 timesteps/s
99.2% CPU use with 8 MPI tasks x no OpenMP threads

MPI task timing breakdown:
Section |  min time  |  avg time  |  max time  |%varavg| %total
---------------------------------------------------------------
Pair    | 2.84       | 5.5151     | 8.1606     |  80.1 | 11.84
Bond    | 0.0002327  | 0.00027328 | 0.00036843 |   0.0 |  0.00
Neigh   | 1.952      | 2.7462     | 3.5589     |  33.2 |  5.89
Comm    | 0.42798    | 3.8888     | 7.3577     | 123.3 |  8.35
Output  | 0.00011145 | 0.00013658 | 0.00026483 |   0.0 |  0.00
Modify  | 34.429     | 34.439     | 34.443     |   0.1 | 73.91
Other   |            | 0.009053   |            |       |  0.02

Nlocal:         183.25 ave         190 max         178 min
Histogram: 1 0 0 0 6 0 0 0 0 1
Nghost:        1282.75 ave        1288 max        1276 min
Histogram: 1 0 0 0 0 6 0 0 0 1
Neighs:         134218 ave      198643 max       68048 min
[...]
Neigh   | 1.9466     | 2.7771     | 3.6088     |  34.0 |  5.71
Comm    | 0.91506    | 4.4178     | 7.9715     | 117.1 |  9.09
Output  | 0.00011837 | 0.00015897 | 0.00035823 |   0.0 |  0.00
Modify  | 35.723     | 35.771     | 35.825     |   0.6 | 73.60
Other   |            | 0.009546   |            |       |  0.02

Nlocal:         183.25 ave         190 max         178 min
Histogram: 1 0 0 0 6 0 0 0 0 1
Nghost:        1282.75 ave        1288 max        1276 min
Histogram: 1 0 0 0 0 6 0 0 0 1
Neighs:         134218 ave      198643 max       68048 min
Histogram: 1 1 1 1 0 0 1 0 2 1
FullNghs:       268436 ave      278325 max      260745 min
Histogram: 1 0 0 0 6 0 0 0 0 1

Total # of neighbors = 2147490
Ave neighs/atom = 1464.8636
Ave special neighs/atom = 0
Neighbor list builds = 7248
Dangerous builds = 0

 # variable cnum equal (${cnum}-1)

  unfix swp

next temp
jump SELF temp_loop

  variable ftemp equal v_temp

  # Electrostatic relaxation-long
  fix  swp fe atom/swap 1 1 ${rand} ${temp} ke no types 1 2
  fix  swp fe atom/swap 1 1 6127347 ${temp} ke no types 1 2
  fix  swp fe atom/swap 1 1 6127347 941 ke no types 1 2
  thermo  1000
  thermo_style custom step  pe f_swp[1] f_swp[2] v_rfet3 v_rfeo3
  run  ${nsteps}
  run  3624
WARNING: No fixes with time integration, atoms won't move (../verlet.cpp:60)
  generated 3 of 3 mixed pair_coeff terms from geometric mixing rule
Per MPI rank memory allocation (min/avg/max) = 8.79 | 9.219 | 9.553 Mbytes
Step PotEng f_swp[1] f_swp[2] v_rfet3 v_rfeo3 
  213816   -287212.43            0            0   0.99411765   0.82175926 
  214000   -287212.43          184            0   0.99411765   0.82175926 
  215000   -287205.67         1184            6            1   0.81944444 
  216000   -287220.44         2184           10            1   0.81944444 
  217000   -287219.01         3184           11            1   0.81944444 
  217440   -287222.15         3624           12            1   0.81944444 
Loop time of 48.8663 on 8 procs for 3624 steps with 1466 atoms

Performance: 6.408 ns/day, 3.746 hours/ns, 74.161 timesteps/s
98.0% CPU use with 8 MPI tasks x no OpenMP threads

MPI task timing breakdown:
Section |  min time  |  avg time  |  max time  |%varavg| %total
---------------------------------------------------------------
Pair    | 2.8824     | 5.6333     | 8.2915     |  80.2 | 11.53
Bond    | 0.00025286 | 0.00027488 | 0.00030318 |   0.0 |  0.00
Neigh   | 1.9556     | 2.7774     | 3.5794     |  33.2 |  5.68
Comm    | 1.1717     | 4.5363     | 8.0236     | 112.4 |  9.28
Output  | 0.00013502 | 0.00017283 | 0.00039503 |   0.0 |  0.00
Modify  | 35.813     | 35.91      | 35.996     |   1.1 | 73.49
Other   |            | 0.009313   |            |       |  0.02

Nlocal:         183.25 ave         190 max         178 min
Histogram: 1 0 0 0 6 0 0 0 0 1
Nghost:        1282.75 ave        1288 max        1276 min
Histogram: 1 0 0 0 0 6 0 0 0 1
Neighs:         134218 ave      198643 max       68048 min
Histogram: 1 1 1 1 0 0 1 0 2 1
FullNghs:       268436 ave      278325 max      260745 min
Histogram: 1 0 0 0 6 0 0 0 0 1

Total # of neighbors = 2147490
Ave neighs/atom = 1464.8636
Ave special neighs/atom = 0
Neighbor list builds = 7248
Dangerous builds = 0

 # variable cnum equal (${cnum}-1)

  unfix swp

next temp
jump SELF temp_loop

  variable ftemp equal v_temp

  # Electrostatic relaxation-long
  fix  swp fe atom/swap 1 1 ${rand} ${temp} ke no types 1 2
  fix  swp fe atom/swap 1 1 3743981 ${temp} ke no types 1 2
  fix  swp fe atom/swap 1 1 3743981 940 ke no types 1 2
  thermo  1000
  thermo_style custom step  pe f_swp[1] f_swp[2] v_rfet3 v_rfeo3
  run  ${nsteps}
  run  3624
WARNING: No fixes with time integration, atoms won't move (../verlet.cpp:60)
  generated 3 of 3 mixed pair_coeff terms from geometric mixing rule
Per MPI rank memory allocation (min/avg/max) = 8.79 | 9.219 | 9.553 Mbytes
Step PotEng f_swp[1] f_swp[2] v_rfet3 v_rfeo3 
  217440   -287222.15            0            0            1   0.81944444 
  218000   -287214.88          560            3            1   0.81944444 
  219000   -287216.59         1560            6            1   0.81944444 
  220000   -287220.98         2560           15            1   0.81944444 
  221000   -287220.98         3560           15            1   0.81944444 
  221064   -287221.81         3624           17            1   0.81944444 
Loop time of 48.9742 on 8 procs for 3624 steps with 1466 atoms

Performance: 6.393 ns/day, 3.754 hours/ns, 73.998 timesteps/s
98.4% CPU use with 8 MPI tasks x no OpenMP threads

MPI task timing breakdown:
Section |  min time  |  avg time  |  max time  |%varavg| %total
---------------------------------------------------------------
Pair    | 2.8437     | 5.6161     | 8.2894     |  81.5 | 11.47
Bond    | 0.00025129 | 0.00027516 | 0.00033051 |   0.0 |  0.00
Neigh   | 1.9384     | 2.7656     | 3.5877     |  34.0 |  5.65
Comm    | 1.0422     | 4.5228     | 8.0872     | 116.8 |  9.23
Output  | 0.0005465  | 0.00058864 | 0.00085078 |   0.0 |  0.00
Modify  | 36.019     | 36.059     | 36.11      |   0.5 | 73.63
Other   |            | 0.009576   |            |       |  0.02

Nlocal:         183.25 ave         190 max         178 min
Histogram: 1 0 0 0 6 0 0 0 0 1
Nghost:        1282.75 ave        1288 max        1276 min
Histogram: 1 0 0 0 0 6 0 0 0 1
Neighs:         134218 ave      198643 max       68048 min
Histogram: 1 1 1 1 0 0 1 0 2 1
FullNghs:       268436 ave      278325 max      260745 min
Histogram: 1 0 0 0 6 0 0 0 0 1

Total # of neighbors = 2147490
Ave neighs/atom = 1464.8636
Ave special neighs/atom = 0
Neighbor list builds = 7248
Dangerous builds = 0

 # variable cnum equal (${cnum}-1)

  unfix swp

next temp
jump SELF temp_loop

  variable ftemp equal v_temp

  # Electrostatic relaxation-long
  fix  swp fe atom/swap 1 1 ${rand} ${temp} ke no types 1 2
  fix  swp fe atom/swap 1 1 3273207 ${temp} ke no types 1 2
  fix  swp fe atom/swap 1 1 3273207 939 ke no types 1 2
  thermo  1000
  thermo_style custom step  pe f_swp[1] f_swp[2] v_rfet3 v_rfeo3
  run  ${nsteps}
  run  3624
WARNING: No fixes with time integration, atoms won't move (../verlet.cpp:60)
  generated 3 of 3 mixed pair_coeff terms from geometric mixing rule
Per MPI rank memory allocation (min/avg/max) = 8.79 | 9.219 | 9.553 Mbytes
Step PotEng f_swp[1] f_swp[2] v_rfet3 v_rfeo3 
  221064   -287221.81            0            0            1   0.81944444 
  222000   -287220.02          936            5            1   0.81944444 
  223000   -287222.67         1936            8            1   0.81944444 
  224000   -287220.62         2936           12            1   0.81944444 
  224688   -287219.86         3624           13            1   0.81944444 
Loop time of 46.4485 on 8 procs for 3624 steps with 1466 atoms

Performance: 6.741 ns/day, 3.560 hours/ns, 78.022 timesteps/s
99.3% CPU use with 8 MPI tasks x no OpenMP threads

MPI task timing breakdown:
Section |  min time  |  avg time  |  max time  |%varavg| %total
---------------------------------------------------------------
Pair    | 2.8819     | 5.5732     | 8.191      |  80.1 | 12.00
Bond    | 0.00023842 | 0.0002797  | 0.00033859 |   0.0 |  0.00
Neigh   | 1.9684     | 2.7521     | 3.5391     |  33.0 |  5.93
Comm    | 0.42856    | 3.8191     | 7.2679     | 124.1 |  8.22
Output  | 0.00012904 | 0.00016752 | 0.00037061 |   0.0 |  0.00
Modify  | 34.28      | 34.295     | 34.321     |   0.2 | 73.83
Other   |            | 0.008903   |            |       |  0.02

Nlocal:         183.25 ave         190 max         178 min
Histogram: 1 0 0 0 6 0 0 0 0 1
Nghost:        1282.75 ave        1288 max        1276 min
Histogram: 1 0 0 0 0 6 0 0 0 1
Neighs:         134218 ave      198643 max       68048 min
Histogram: 1 1 1 1 0 0 1 0 2 1
FullNghs:       268436 ave      278325 max      260745 min
Histogram: 1 0 0 0 6 0 0 0 0 1

Total # of neighbors = 2147490
Ave neighs/atom = 1464.8636
Ave special neighs/atom = 0
Neighbor list builds = 7248
Dangerous builds = 0

 # variable cnum equal (${cnum}-1)

  unfix swp

next temp
jump SELF temp_loop

  variable ftemp equal v_temp

  # Electrostatic relaxation-long
  fix  swp fe atom/swap 1 1 ${rand} ${temp} ke no types 1 2
  fix  swp fe atom/swap 1 1 240566 ${temp} ke no types 1 2
  fix  swp fe atom/swap 1 1 240566 938 ke no types 1 2
  thermo  1000
  thermo_style custom step  pe f_swp[1] f_swp[2] v_rfet3 v_rfeo3
  run  ${nsteps}
  run  3624
WARNING: No fixes with time integration, atoms won't move (../verlet.cpp:60)
  generated 3 of 3 mixed pair_coeff terms from geometric mixing rule
Per MPI rank memory allocation (min/avg/max) = 8.79 | 9.219 | 9.553 Mbytes
Step PotEng f_swp[1] f_swp[2] v_rfet3 v_rfeo3 
  224688   -287219.86            0            0            1   0.81944444 
  225000   -287221.47          312            1            1   0.81944444 
  226000   -287215.98         1312           10            1   0.81944444 
  227000   -287214.08         2312           12            1   0.81944444 
  228000   -287210.49         3312           15            1   0.81944444 
  228312   -287210.49         3624           15            1   0.81944444 
Loop time of 48.9685 on 8 procs for 3624 steps with 1466 atoms

Performance: 6.394 ns/day, 3.753 hours/ns, 74.007 timesteps/s
98.5% CPU use with 8 MPI tasks x no OpenMP threads

MPI task timing breakdown:
Section |  min time  |  avg time  |  max time  |%varavg| %total
---------------------------------------------------------------
Pair    | 2.8607     | 5.5881     | 8.246      |  81.0 | 11.41
Bond    | 0.00023889 | 0.00027803 | 0.00034983 |   0.0 |  0.00
Neigh   | 1.9588     | 2.7578     | 3.5696     |  33.7 |  5.63
Comm    | 1.1463     | 4.5415     | 8.0183     | 113.6 |  9.27
Output  | 0.00013238 | 0.00017769 | 0.00045116 |   0.0 |  0.00
Modify  | 35.997     | 36.072     | 36.149     |   0.9 | 73.66
Other   |            | 0.00893    |            |       |  0.02

Nlocal:         183.25 ave         190 max         178 min
Histogram: 1 0 0 0 6 0 0 0 0 1
Nghost:        1282.75 ave        1288 max        1276 min
Histogram: 1 0 0 0 0 6 0 0 0 1
Neighs:         134218 ave      198643 max       68048 min
Histogram: 1 1 1 1 0 0 1 0 2 1
FullNghs:       268436 ave      278325 max      260745 min
Histogram: 1 0 0 0 6 0 0 0 0 1

Total # of neighbors = 2147490
Ave neighs/atom = 1464.8636
Ave special neighs/atom = 0
Neighbor list builds = 7248
Dangerous builds = 0

 # variable cnum equal (${cnum}-1)

  unfix swp

next temp
jump SELF temp_loop

  variable ftemp equal v_temp

  # Electrostatic relaxation-long
  fix  swp fe atom/swap 1 1 ${rand} ${temp} ke no types 1 2
  fix  swp fe atom/swap 1 1 7452945 ${temp} ke no types 1 2
  fix  swp fe atom/swap 1 1 7452945 937 ke no types 1 2
  thermo  1000
  thermo_style custom step  pe f_swp[1] f_swp[2] v_rfet3 v_rfeo3
  run  ${nsteps}
  run  3624
WARNING: No fixes with time integration, atoms won't move (../verlet.cpp:60)
  generated 3 of 3 mixed pair_coeff terms from geometric mixing rule
Per MPI rank memory allocation (min/avg/max) = 8.79 | 9.219 | 9.553 Mbytes
Step PotEng f_swp[1] f_swp[2] v_rfet3 v_rfeo3 
  228312   -287210.49            0            0            1   0.81944444 
  229000   -287209.39          688            3            1   0.81944444 
  230000    -287214.4         1688            7            1   0.81944444 
  231000   -287202.94         2688           13            1   0.81944444 
  231936   -287206.94         3624           21            1   0.81944444 
Loop time of 48.3983 on 8 procs for 3624 steps with 1466 atoms

Performance: 6.470 ns/day, 3.710 hours/ns, 74.879 timesteps/s
98.4% CPU use with 8 MPI tasks x no OpenMP threads

MPI task timing breakdown:
Section |  min time  |  avg time  |  max time  |%varavg| %total
---------------------------------------------------------------
Pair    | 2.8516     | 5.6067     | 8.3395     |  81.7 | 11.58
Bond    | 0.00024515 | 0.00027555 | 0.00031663 |   0.0 |  0.00
Neigh   | 1.9636     | 2.7695     | 3.5921     |  33.7 |  5.72
Comm    | 0.83083    | 4.3352     | 7.8591     | 118.4 |  8.96
Output  | 0.0021704  | 0.0024537  | 0.0027264  |   0.4 |  0.01
Modify  | 35.623     | 35.675     | 35.712     |   0.6 | 73.71
Other   |            | 0.009389   |            |       |  0.02

Nlocal:         183.25 ave         190 max         178 min
Histogram: 1 0 0 0 6 0 0 0 0 1
Nghost:        1282.75 ave        1288 max        1276 min
Histogram: 1 0 0 0 0 6 0 0 0 1
Neighs:         134218 ave      198643 max       68048 min
Histogram: 1 1 1 1 0 0 1 0 2 1
FullNghs:       268436 ave      278325 max      260745 min
Histogram: 1 0 0 0 6 0 0 0 0 1

Total # of neighbors = 2147490
Ave neighs/atom = 1464.8636
Ave special neighs/atom = 0
Neighbor list builds = 7248
Dangerous builds = 0

 # variable cnum equal (${cnum}-1)

  unfix swp

next temp
jump SELF temp_loop

  variable ftemp equal v_temp

  # Electrostatic relaxation-long
  fix  swp fe atom/swap 1 1 ${rand} ${temp} ke no types 1 2
  fix  swp fe atom/swap 1 1 9853395 ${temp} ke no types 1 2
  fix  swp fe atom/swap 1 1 9853395 936 ke no types 1 2
  thermo  1000
  thermo_style custom step  pe f_swp[1] f_swp[2] v_rfet3 v_rfeo3
  run  ${nsteps}
  run  3624
WARNING: No fixes with time integration, atoms won't move (../verlet.cpp:60)
  generated 3 of 3 mixed pair_coeff terms from geometric mixing rule
Per MPI rank memory allocation (min/avg/max) = 8.79 | 9.219 | 9.553 Mbytes
Step PotEng f_swp[1] f_swp[2] v_rfet3 v_rfeo3 
  231936   -287206.94            0            0            1   0.81944444 
  232000   -287206.94           64            0            1   0.81944444 
  233000   -287207.11         1064            1            1   0.81944444 
  234000   -287213.94         2064            7            1   0.81944444 
  235000   -287217.38         3064           11            1   0.81944444 
  235560   -287215.85         3624           13            1   0.81944444 
Loop time of 48.2047 on 8 procs for 3624 steps with 1466 atoms

Performance: 6.496 ns/day, 3.695 hours/ns, 75.179 timesteps/s
98.7% CPU use with 8 MPI tasks x no OpenMP threads

MPI task timing breakdown:
Section |  min time  |  avg time  |  max time  |%varavg| %total
---------------------------------------------------------------
Pair    | 2.8563     | 5.595      | 8.2896     |  81.6 | 11.61
Bond    | 0.00023868 | 0.00027564 | 0.00033949 |   0.0 |  0.00
Neigh   | 1.954      | 2.7651     | 3.5807     |  33.7 |  5.74
Comm    | 0.92831    | 4.382      | 7.8785     | 117.0 |  9.09
Output  | 0.00013202 | 0.00016777 | 0.00038198 |   0.0 |  0.00
Modify  | 35.396     | 35.453     | 35.506     |   0.7 | 73.55
Other   |            | 0.009064   |            |       |  0.02

Nlocal:         183.25 ave         190 max         178 min
Histogram: 1 0 0 0 6 0 0 0 0 1
Nghost:        1282.75 ave        1288 max        1276 min
Histogram: 1 0 0 0 0 6 0 0 0 1
Neighs:         134218 ave      198643 max       68048 min
Histogram: 1 1 1 1 0 0 1 0 2 1
FullNghs:       268436 ave      278325 max      260745 min
Histogram: 1 0 0 0 6 0 0 0 0 1

Total # of neighbors = 2147490
Ave neighs/atom = 1464.8636
Ave special neighs/atom = 0
Neighbor list builds = 7248
Dangerous builds = 0

 # variable cnum equal (${cnum}-1)

  unfix swp

next temp
jump SELF temp_loop

  variable ftemp equal v_temp

  # Electrostatic relaxation-long
  fix  swp fe atom/swap 1 1 ${rand} ${temp} ke no types 1 2
  fix  swp fe atom/swap 1 1 8452553 ${temp} ke no types 1 2
  fix  swp fe atom/swap 1 1 8452553 935 ke no types 1 2
  thermo  1000
  thermo_style custom step  pe f_swp[1] f_swp[2] v_rfet3 v_rfeo3
  run  ${nsteps}
  run  3624
WARNING: No fixes with time integration, atoms won't move (../verlet.cpp:60)
  generated 3 of 3 mixed pair_coeff terms from geometric mixing rule
Per MPI rank memory allocation (min/avg/max) = 8.79 | 9.219 | 9.553 Mbytes
Step PotEng f_swp[1] f_swp[2] v_rfet3 v_rfeo3 
  235560   -287215.85            0            0            1   0.81944444 
  236000   -287217.68          440            3            1   0.81944444 
  237000   -287221.92         1440            9            1   0.81944444 
  238000   -287221.92         2440           19            1   0.81944444 
  239000   -287208.93         3440           25   0.99411765   0.82175926 
  239184   -287210.37         3624           26            1   0.81944444 
Loop time of 48.4317 on 8 procs for 3624 steps with 1466 atoms

Performance: 6.465 ns/day, 3.712 hours/ns, 74.827 timesteps/s
98.6% CPU use with 8 MPI tasks x no OpenMP threads

MPI task timing breakdown:
Section |  min time  |  avg time  |  max time  |%varavg| %total
---------------------------------------------------------------
Pair    | 2.8638     | 5.6095     | 8.3027     |  81.1 | 11.58
Bond    | 0.00023586 | 0.00027524 | 0.00035144 |   0.0 |  0.00
Neigh   | 1.965      | 2.7617     | 3.5558     |  33.3 |  5.70
Comm    | 0.90879    | 4.3746     | 7.9091     | 117.8 |  9.03
Output  | 0.00014875 | 0.00019472 | 0.00045009 |   0.0 |  0.00
Modify  | 35.648     | 35.676     | 35.7       |   0.3 | 73.66
Other   |            | 0.009027   |            |       |  0.02

Nlocal:         183.25 ave         190 max         178 min
Histogram: 1 0 0 0 6 0 0 0 0 1
Nghost:        1282.75 ave        1288 max        1276 min
Histogram: 1 0 0 0 0 6 0 0 0 1
Neighs:         134218 ave      198643 max       68048 min
Histogram: 1 1 1 1 0 0 1 0 2 1
FullNghs:       268436 ave      278325 max      260745 min
Histogram: 1 0 0 0 6 0 0 0 0 1

Total # of neighbors = 2147490
Ave neighs/atom = 1464.8636
Ave special neighs/atom = 0
Neighbor list builds = 7248
Dangerous builds = 0

 # variable cnum equal (${cnum}-1)

  unfix swp

next temp
jump SELF temp_loop

  variable ftemp equal v_temp

  # Electrostatic relaxation-long
  fix  swp fe atom/swap 1 1 ${rand} ${temp} ke no types 1 2
  fix  swp fe atom/swap 1 1 8678619 ${temp} ke no types 1 2
  fix  swp fe atom/swap 1 1 8678619 934 ke no types 1 2
  thermo  1000
  thermo_style custom step  pe f_swp[1] f_swp[2] v_rfet3 v_rfeo3
  run  ${nsteps}
  run  3624
WARNING: No fixes with time integration, atoms won't move (../verlet.cpp:60)
  generated 3 of 3 mixed pair_coeff terms from geometric mixing rule
Per MPI rank memory allocation (min/avg/max) = 8.79 | 9.219 | 9.553 Mbytes
Step PotEng f_swp[1] f_swp[2] v_rfet3 v_rfeo3 
  239184   -287210.37            0            0            1   0.81944444 
  240000   -287209.41          816            5            1   0.81944444 
  241000   -287200.77         1816            9            1   0.81944444 
  242000   -287207.48         2816           14            1   0.81944444 
  242808   -287213.86         3624           16            1   0.81944444 
Loop time of 457.056 on 8 procs for 3624 steps with 1466 atoms

Performance: 0.685 ns/day, 35.033 hours/ns, 7.929 timesteps/s
51.7% CPU use with 8 MPI tasks x no OpenMP threads

MPI task timing breakdown:
Section |  min time  |  avg time  |  max time  |%varavg| %total
---------------------------------------------------------------
Pair    | 2.9662     | 6.4771     | 9.812      |  96.5 |  1.42
Bond    | 0.00025118 | 0.00027659 | 0.00033146 |   0.0 |  0.00
Neigh   | 2.0938     | 3.0137     | 4.0195     |  38.8 |  0.66
Comm    | 123.22     | 126.55     | 129.61     |  20.5 | 27.69
Output  | 0.32586    | 0.36295    | 0.38706    |   3.9 |  0.08
Modify  | 313.22     | 320.62     | 328.37     |  30.0 | 70.15
Other   |            | 0.03124    |            |       |  0.01

Nlocal:         183.25 ave         190 max         178 min
Histogram: 1 0 0 0 6 0 0 0 0 1
Nghost:        1282.75 ave        1288 max        1276 min
Histogram: 1 0 0 0 0 6 0 0 0 1
Neighs:         134218 ave      198643 max       68048 min
Histogram: 1 1 1 1 0 0 1 0 2 1
FullNghs:       268436 ave      278325 max      260745 min
Histogram: 1 0 0 0 6 0 0 0 0 1

Total # of neighbors = 2147490
Ave neighs/atom = 1464.8636
Ave special neighs/atom = 0
Neighbor list builds = 7248
Dangerous builds = 0
