LAMMPS data file via write_data, version 17 Feb 2022, timestep = 73

1466 atoms
3 atom types

-2.220001 99.540001 xlo xhi
-2.220001 99.540001 ylo yhi
-2.220001 99.540001 zlo zhi

Masses

1 55.845
2 55.845
3 15.9994

Pair Coeffs # lj/cut/coul/cut

1 9.0298e-07 4.9062
2 9.0298e-07 4.9062
3 0.1554 3.16554

Atoms # charge

1 2 1.575 38.22730689249472 38.225871711181746 38.231096264943574 0 0 0
20 3 -1.05 39.57005579225498 37.311182129140526 37.31744686980707 0 0 0
21 2 1.575 46.6947130695341 38.19739205453025 38.20362349672403 0 0 0
32 3 -1.05 47.90757851049675 37.21577785703251 37.218409720669825 0 0 0
226 2 1.575 41.38934034561902 37.42910165440936 37.434335454480234 0 0 0
230 3 -1.05 43.37821785581245 37.40883632682105 37.415166596354865 0 0 0
262 2 1.575 49.73212732261343 37.338747592649774 37.34056831569411 0 0 0
266 3 -1.05 51.692156681060524 37.34066038616773 37.34249212084933 0 0 0
995 2 1.575 55.00412493910357 38.11947203301299 38.12430299534349 0 0 0
1014 3 -1.05 56.16023782168835 37.103357607241065 37.10002471136162 0 0 0
1198 2 1.575 57.98025033352933 37.26715174816532 37.26296331845835 0 0 0
1188 3 -1.05 59.98988487264577 37.329032736344736 37.32210818727506 0 0 0
11 2 1.575 38.19840954291934 46.69184527959672 38.19773381548033 0 0 0
36 3 -1.05 37.31133737009244 39.56797142101038 37.317651017052135 0 0 0
38 3 -1.05 37.214191937197874 47.90677372776473 37.21792126267769 0 0 0
116 2 1.575 37.42918795520351 41.387183217447514 37.43297603180925 0 0 0
119 3 -1.05 37.409537604811014 43.377211383719725 37.41248425641057 0 0 0
134 2 1.575 37.33715648021978 49.7311716817911 37.3386732109466 0 0 0
137 3 -1.05 37.33978295720602 51.69167434038034 37.33976171895211 0 0 0
669 2 1.575 38.1333218973039 55.0044218671261 38.128923346530144 0 0 0
702 3 -1.05 37.1113506634793 56.154175202256546 37.10758180369671 0 0 0
780 2 1.575 37.27542257244945 57.97453752729222 37.26968562175037 0 0 0
9 3 -1.05 39.44920389356135 45.52071027979447 37.359438381227285 0 0 0
10 3 -1.05 45.523256908909154 39.447213485298896 37.36262848478877 0 0 0
16 3 -1.05 45.42463207580103 47.77372203640254 37.30019201742533 0 0 0
26 3 -1.05 47.77766209600961 45.42209530920617 37.29370560874112 0 0 0
27 2 1.575 46.59529216701173 46.58955526750566 38.163862737150964 0 0 0
117 2 1.575 39.369697342748125 43.58993150093981 37.34578886150542 0 0 0
121 3 -1.05 39.329472384784715 41.675671185778725 37.44369929148069 0 0 0
152 2 1.575 45.61687573428737 41.381487041833715 37.321154253734136 0 0 0
153 2 1.575 47.68827290838965 43.48682919959166 37.305763392736544 0 0 0
155 3 -1.05 45.75570461220764 43.34252174395854 37.39029006609458 0 0 0
157 3 -1.05 47.54447504851881 41.55769277295661 37.39259683412289 0 0 0
229 2 1.575 43.592970364182484 39.368208169936665 37.34810461557187 0 0 0
232 3 -1.05 41.67779371364539 39.3296684389383 37.4449412078423 0 0 0
244 2 1.575 41.383803532458565 45.61281911441932 37.31948315526934 0 0 0
247 2 1.575 43.489506595041966 47.68245217840251 37.30300941373041 0 0 0
248 3 -1.05 43.34379071078333 45.751851171039654 37.38995329530203 0 0 0
250 3 -1.05 41.559207079142034 47.54088526650853 37.38977773854746 0 0 0
337 2 1.575 42.436917477874346 42.434112967877 38.16289154571078 0 0 0
345 3 -1.05 41.31708812747252 43.69063895804737 37.315455818009575 0 0 0
346 3 -1.05 43.69393971767253 41.31570948359439 37.31505310209701 0 0 0
135 2 1.575 39.30239888622617 51.89465505533746 37.27625024509474 0 0 0
139 3 -1.05 39.24347500672683 49.96880677895386 37.36694544545258 0 0 0
170 2 1.575 45.52361920397564 49.70946905802853 37.29263228304988 0 0 0
171 2 1.575 47.613437258517344 51.799056436104216 37.28960695516755 0 0 0
173 3 -1.05 45.677921757065654 51.649661817845605 37.36181253955251 0 0 0
175 3 -1.05 47.462275562217734 49.86010489239396 37.37056269682052 0 0 0
347 2 1.575 42.37964026466871 50.78370909471649 38.121767550630395 0 0 0
355 3 -1.05 41.24579301007443 51.994797611295496 37.2395740848934 0 0 0
356 3 -1.05 43.58995613709241 49.614733112653425 37.281071759483915 0 0 0
668 3 -1.05 39.38354708965695 53.822042195884634 37.2989666039904 0 0 0
678 3 -1.05 45.325971251442404 56.07096330030609 37.249712703730786 0 0 0
684 3 -1.05 43.49783070621554 57.937066622854324 37.30074224054128 0 0 0
686 3 -1.05 47.70508770680413 53.73528007609534 37.294495115945175 0 0 0
687 2 1.575 46.53514168148945 54.94197511256532 38.134850953284825 0 0 0
785 3 -1.05 39.17545511493816 58.14218072324 37.30483530148174 0 0 0
816 2 1.575 45.42340354101923 58.01459977097464 37.28693946311125 0 0 0
821 3 -1.05 47.34844624376293 58.07275634546741 37.37272959256942 0 0 0
863 3 -1.05 41.48787531576699 55.832582732394464 37.31806031584921 0 0 0
865 3 -1.05 43.2745999508613 54.05058152045938 37.34092431959847 0 0 0
866 2 1.575 43.40548693130117 56.00409944175401 37.25201441356352 0 0 0
875 2 1.575 41.31889460091427 53.9153839622013 37.24495971114018 0 0 0
265 2 1.575 51.89669452609914 39.30151713754798 37.286258514336296 0 0 0
268 3 -1.05 49.97105404440596 39.244854487108775 37.37341730571792 0 0 0
280 2 1.575 49.71299150811892 45.52488633245694 37.292956736240164 0 0 0
283 2 1.575 51.80692915027333 47.610933462617695 37.28893374995227 0 0 0
284 3 -1.05 51.650252456309275 45.674323388093086 37.35770285008914 0 0 0
286 3 -1.05 49.86845222052307 47.46715423374382 37.37146871698498 0 0 0
357 2 1.575 50.7878139673569 42.3768859070472 38.134965233431565 0 0 0
365 3 -1.05 49.62195675075885 43.588323657978165 37.29330853859036 0 0 0
366 3 -1.05 51.996247534074534 41.24487214348396 37.24879329742956 0 0 0
990 3 -1.05 53.823398013618835 39.37498408353755 37.29548989348861 0 0 0
992 3 -1.05 53.74143719964506 47.70764039986089 37.27567081815031 0 0 0
1003 3 -1.05 56.08030053038132 45.318364316886615 37.230682838487056 0 0 0
1005 2 1.575 54.947497669574545 46.53106248644477 38.11255370718362 0 0 0
1015 3 -1.05 57.942929668178216 43.49010147552539 37.29013538821625 0 0 0
1102 2 1.575 53.91738826757836 41.30882413270184 37.247359233648005 0 0 0
1103 2 1.575 56.0065459387094 43.396579037876215 37.237811539666055 0 0 0
1105 3 -1.05 54.051425532842195 43.26250395771778 37.332747721825164 0 0 0
1107 3 -1.05 55.83661411345861 41.4789554825851 37.30980981994854 0 0 0
1141 3 -1.05 58.080090987430566 47.34498705974659 37.35839503152591 0 0 0
1152 2 1.575 58.02274043122432 45.41774454331521 37.268071082899894 0 0 0
1183 3 -1.05 58.149862757312846 39.167298211199835 37.29731244691131 0 0 0
367 2 1.575 50.733889766869844 50.73088257246981 38.14182238702514 0 0 0
375 3 -1.05 49.54999050089854 51.90470996269269 37.28649394931798 0 0 0
376 3 -1.05 51.90738811746621 49.54850806708203 37.28687245471224 0 0 0
797 3 -1.05 49.78095628918387 55.76596725076047 37.39337542279817 0 0 0
799 3 -1.05 51.57019415156131 53.983929173947615 37.38524390337645 0 0 0
800 2 1.575 51.70838321394422 55.947533152181904 37.318632632197236 0 0 0
803 2 1.575 49.63785816246552 53.839353180667445 37.299175616696964 0 0 0
837 3 -1.05 51.79901864850849 57.87915293808369 37.359988917701585 0 0 0
1081 3 -1.05 57.8778141611223 51.804612107813696 37.35161583569247 0 0 0
1120 2 1.575 53.84091853059638 49.63832414633856 37.29374619750821 0 0 0
1121 2 1.575 55.944096240581416 51.7130162959103 37.311710787708016 0 0 0
1123 3 -1.05 53.98127335454499 51.57152521729207 37.38312809309111 0 0 0
1125 3 -1.05 55.7679544976288 49.78548769135129 37.3834545748673 0 0 0
1314 3 -1.05 53.629752631099265 56.00991517916692 37.31255620660024 0 0 0
1320 3 -1.05 56.00874965492665 53.63455679885007 37.31103882253681 0 0 0
1321 2 1.575 54.89202464803658 54.89513374236778 38.158113150244304 0 0 0
1338 3 -1.05 57.99987958379593 55.65154392793271 37.430800702433196 0 0 0
1344 2 1.575 57.95879304001914 53.7373861922474 37.33587628893457 0 0 0
1394 3 -1.05 55.64580871174031 57.99827329545085 37.43666219175631 0 0 0
1401 2 1.575 53.7307328690674 57.95953877624229 37.34573600133412 0 0 0
1013 2 1.575 59.19310000239938 42.3045632174608 38.11814321003836 0 0 0
1016 3 -1.05 60.216878350567114 41.15390686540675 37.09632398595626 0 0 0
1143 3 -1.05 59.98451126840345 45.62311211835054 37.33127599671353 0 0 0
1149 2 1.575 59.986301293819814 47.584416897324715 37.33073426580484 0 0 0
1190 2 1.575 60.04971889983774 39.33418495111325 37.261912646757125 0 0 0
1017 2 1.575 59.130783886212534 50.63115942829687 38.186164488202465 0 0 0
1082 3 -1.05 60.10925413662966 49.40911249259104 37.2090995388454 0 0 0
1340 3 -1.05 59.91943679237554 53.949080188169944 37.39772973926416 0 0 0
1341 2 1.575 59.90101473132435 55.94223675538274 37.41701620986369 0 0 0
1382 3 -1.05 60.014076763301176 57.76187859076173 37.304456264904665 0 0 0
783 3 -1.05 37.335317757993366 59.98030016220372 37.328583971033616 0 0 0
682 2 1.575 42.31782214011826 59.189184071019966 38.13221000050235 0 0 0
683 3 -1.05 41.164253948811876 60.204949695840696 37.108089047594255 0 0 0
781 2 1.575 39.34393611714557 60.04242099532816 37.26901100691625 0 0 0
817 2 1.575 47.585761765839386 59.97984050415565 37.337960619112465 0 0 0
819 3 -1.05 45.62483828953532 59.974531990620555 37.34269669772761 0 0 0
739 2 1.575 50.62970670320426 59.13228186273852 38.20057644060159 0 0 0
836 3 -1.05 49.4097663940697 60.1039092907187 37.21381155598089 0 0 0
1381 3 -1.05 57.755222847875345 60.01538616173098 37.30373817620226 0 0 0
1396 3 -1.05 53.94389517631261 59.91810602224872 37.40505128918471 0 0 0
1400 2 1.575 55.93575621708729 59.90011322220749 37.42091559090645 0 0 0
1345 2 1.575 59.09695829303249 59.1019942806659 38.22111914322033 0 0 0
6 2 1.575 38.19199069377458 38.198347419029474 46.69779523540055 0 0 0
39 3 -1.05 37.312959503125754 37.31192601624127 39.57422992746599 0 0 0
40 3 -1.05 37.21636455323479 37.21689593130349 47.91748932429512 0 0 0
45 2 1.575 37.4282437233159 37.42824809172592 41.39330812513942 0 0 0
48 3 -1.05 37.40747407042951 37.409635368812495 43.38554013634859 0 0 0
54 2 1.575 37.335528669292046 37.33670965170273 49.74175857990098 0 0 0
57 3 -1.05 37.34000649833523 37.34113659596591 51.701349586189735 0 0 0
451 2 1.575 38.118035167768944 38.12328346003583 55.016249091519924 0 0 0
487 3 -1.05 37.10074553112619 37.09816267423063 56.16947237746204 0 0 0
493 2 1.575 37.26441514243755 37.26183573237267 57.98964662674287 0 0 0
17 3 -1.05 39.44722740070432 37.362179720377526 45.53016381957122 0 0 0
18 3 -1.05 45.52164936844567 37.35843889321055 39.45386078515388 0 0 0
19 3 -1.05 45.41258576484058 37.293386843386855 47.78243917994505 0 0 0
24 2 1.575 46.59223514978396 38.1419790626435 46.59811603182454 0 0 0
31 3 -1.05 47.77013993203404 37.28005057866677 45.42577352361069 0 0 0
44 2 1.575 39.367102543929775 37.34441901542404 43.597290485124766 0 0 0
47 3 -1.05 39.328361937444484 37.43945264334346 41.68388458386911 0 0 0
80 2 1.575 47.68296625587203 37.29731244969398 43.49256497251733 0 0 0
81 2 1.575 45.61369154769069 37.319135640848444 41.386671090331696 0 0 0
83 3 -1.05 47.538097289534335 37.39319872102158 41.56623988907634 0 0 0
84 3 -1.05 45.74851338612392 37.38545226459903 43.35043234246722 0 0 0
228 2 1.575 43.59163728430885 37.344497729683205 39.37374810986915 0 0 0
233 3 -1.05 41.67675639010623 37.44108913650161 39.335653775158555 0 0 0
235 2 1.575 41.379873577880204 37.3182478322212 45.621347867122395 0 0 0
237 2 1.575 43.48117047006227 37.30144010049238 47.69447065397259 0 0 0
239 3 -1.05 43.339305338832176 37.3927848369691 45.765502595792846 0 0 0
242 3 -1.05 41.55297749259644 37.39180622596635 47.55112924709263 0 0 0
297 2 1.575 42.434711896663146 38.160832493943644 42.43968624933096 0 0 0
313 3 -1.05 43.69165221881183 37.31278957977644 41.322693138484844 0 0 0
314 3 -1.05 41.316122055665424 37.31751253479489 43.70107806105109 0 0 0
53 2 1.575 39.29730502829662 37.28385700931375 51.90699926817363 0 0 0
56 3 -1.05 39.24412396475001 37.37346131304268 49.98068350110316 0 0 0
89 2 1.575 47.60309584389955 37.28291750385835 51.80649588611838 0 0 0
90 2 1.575 45.515354892202645 37.29141825377633 49.71660216122503 0 0 0
92 3 -1.05 47.44964150909078 37.371235414011224 49.868861331518175 0 0 0
93 3 -1.05 45.661560929073914 37.3604451333052 51.65305206546218 0 0 0
302 2 1.575 42.37203228088514 38.12484959263857 50.79504262455454 0 0 0
315 3 -1.05 43.57981614943321 37.2898334187493 49.62643676409172 0 0 0
316 3 -1.05 41.23999787719212 37.2475982063991 52.004781208645674 0 0 0
465 3 -1.05 39.37281402530456 37.29857677909131 53.8321505568651 0 0 0
467 3 -1.05 45.31353942995704 37.236429737397316 56.08228605138221 0 0 0
470 2 1.575 46.53047263695456 38.11313534610419 54.94968530338107 0 0 0
479 3 -1.05 47.69435489410588 37.27195252382121 53.73776346263942 0 0 0
484 3 -1.05 43.48696008913453 37.29429519630362 57.946213565837276 0 0 0
495 3 -1.05 39.16535570809992 37.2980398753523 58.156369798700936 0 0 0
529 2 1.575 45.415852337452975 37.27041671728335 58.02688877217481 0 0 0
531 3 -1.05 47.34039520840426 37.35928923337543 58.08436695674441 0 0 0
641 3 -1.05 41.47786453245705 37.31493266741289 55.84113390515743 0 0 0
649 3 -1.05 43.25830040636977 37.33691118450278 54.05348915916059 0 0 0
651 2 1.575 43.39476594655237 37.23947965842656 56.01142438250793 0 0 0
656 2 1.575 41.30529444112098 37.24702853452133 53.92544574615334 0 0 0
264 2 1.575 51.89676942453576 37.27513935790284 39.304464157181975 0 0 0
269 3 -1.05 49.97049041733428 37.36488922302782 39.246207600348114 0 0 0
271 2 1.575 49.71008718080349 37.2923232771387 45.52318286250907 0 0 0
273 2 1.575 51.79925931431921 37.285797521981635 47.60713808896815 0 0 0
275 3 -1.05 51.6421800951056 37.363834428318604 45.67545398118367 0 0 0
278 3 -1.05 49.85548981835295 37.36082042711218 47.46526978820125 0 0 0
317 2 1.575 50.7906579660301 38.11407247287596 42.384831782912975 0 0 0
333 3 -1.05 51.9961283881415 37.23001595151935 41.24371345448489 0 0 0
334 3 -1.05 49.611211896899924 37.277857218461335 43.58936625117212 0 0 0
993 3 -1.05 53.823524763211985 37.288147460538376 39.375578705785614 0 0 0
994 3 -1.05 53.73289369056658 37.25984762074048 47.7019362416903 0 0 0
1000 2 1.575 54.93980050381588 38.090918550978614 46.52704508282996 0 0 0
1011 3 -1.05 56.08310411322391 37.220617514993876 45.31687113618539 0 0 0
1021 3 -1.05 57.946371969791144 37.28615998861918 43.48698067097188 0 0 0
1030 2 1.575 56.00834764459663 37.239835371353145 43.39479093483653 0 0 0
1031 2 1.575 53.91823558112201 37.24270016362608 41.312837238198846 0 0 0
1033 3 -1.05 55.84057421738548 37.30541990055466 41.47460857857111 0 0 0
1034 3 -1.05 54.05916893983809 37.33105310023184 43.262290272704234 0 0 0
1158 3 -1.05 58.081461207325226 37.35994537298522 47.33840029218296 0 0 0
1170 2 1.575 58.02110186809155 37.269371577556925 45.4122006022921 0 0 0
1180 3 -1.05 58.15255218362435 37.29919318445782 39.16231952766356 0 0 0
322 2 1.575 50.729306918969264 38.12067194126932 50.730986446759694 0 0 0
335 3 -1.05 51.895916678612515 37.262912674117 49.540805009068336 0 0 0
336 3 -1.05 49.532549612637 37.271933943427435 51.90106941844515 0 0 0
463 3 -1.05 51.795167069903194 37.344094819185095 57.876150843308125 0 0 0
560 3 -1.05 49.766494158090275 37.375231589859716 55.767497948705916 0 0 0
577 3 -1.05 51.558938822830626 37.37892249306846 53.985081647335065 0 0 0
591 2 1.575 51.70067497034604 37.31150956625953 55.93932170395113 0 0 0
593 2 1.575 49.63168300817477 37.293993561121184 53.836073232006015 0 0 0
1019 3 -1.05 57.871975425229664 37.34513671881896 51.7925621214951 0 0 0
1039 2 1.575 55.93468482909994 37.310796072976274 51.700955221267 0 0 0
1040 2 1.575 53.8289537646785 37.29030455322036 49.633619336730554 0 0 0
1042 3 -1.05 55.76189220207473 37.372527860977584 49.76805268621746 0 0 0
1043 3 -1.05 53.98085172255622 37.38224032671892 51.56045642751411 0 0 0
1209 3 -1.05 53.62515974930406 37.30284155339907 56.00519690297186 0 0 0
1213 2 1.575 54.879491660524856 38.14987978242707 54.880384135226635 0 0 0
1227 3 -1.05 56.00355725812818 37.30391265144413 53.62471662555733 0 0 0
1231 3 -1.05 57.990410974128935 37.438445654476844 55.63740902362174 0 0 0
1238 2 1.575 57.9480966950199 37.339145426321764 53.723088422261725 0 0 0
1247 2 1.575 53.725778973888524 37.33920654665445 57.949539734322244 0 0 0
1249 3 -1.05 55.64047575898433 37.438557976155614 57.98899467551324 0 0 0
1022 3 -1.05 60.21952850297136 37.102968907557845 41.14904074111756 0 0 0
1074 2 1.575 59.1921326202452 38.11862899500198 42.30243611663963 0 0 0
1161 3 -1.05 59.982543909508905 37.34091960083645 45.61640019865799 0 0 0
1168 2 1.575 59.98764819655486 37.33719200952314 47.577330775580585 0 0 0
1193 2 1.575 60.05216010301952 37.26695860608558 39.32931817659793 0 0 0
1020 3 -1.05 60.10910624284862 37.21994210535766 49.40203727934008 0 0 0
1069 2 1.575 59.11860261248184 38.187810236265 50.621914143277266 0 0 0
1218 3 -1.05 60.00877976791808 37.31472522387558 57.74417171359876 0 0 0
1234 3 -1.05 59.90942901133893 37.41043420913244 53.93487771093874 0 0 0
1236 2 1.575 59.88999665895576 37.43163868815599 55.92502278150294 0 0 0
14 2 1.575 38.138930986187944 46.59106255122186 46.59651054931766 0 0 0
33 3 -1.05 37.35541890712761 39.45081649050097 45.527697657494144 0 0 0
34 3 -1.05 37.358215716536456 45.52200497788327 39.449984155861294 0 0 0
35 3 -1.05 37.28226073591947 45.41832419117241 47.77819522553583 0 0 0
37 3 -1.05 37.28658638624791 47.7749536069581 45.42112393632566 0 0 0
43 2 1.575 37.341248629250586 39.36910529004129 43.5951294638532 0 0 0
49 3 -1.05 37.438838422713005 39.328979129949005 41.68185467956197 0 0 0
61 2 1.575 37.29738605809077 47.684612342204744 43.486914316207844 0 0 0
63 2 1.575 37.31634112947777 45.614065540756634 41.38217392641416 0 0 0
66 3 -1.05 37.384228486016234 45.75218257802348 43.34587603290001 0 0 0
67 3 -1.05 37.39197657617496 47.54041430983576 41.5610770588849 0 0 0
115 2 1.575 37.34465151436343 43.59101189272182 39.37055685756035 0 0 0
118 3 -1.05 37.44092064529327 41.67652441947181 39.33404617976339 0 0 0
124 2 1.575 37.28919642095036 43.486832776967866 47.69017014404461 0 0 0
125 2 1.575 37.31130681700457 41.383678047416765 45.61749394414052 0 0 0
127 3 -1.05 37.381834560562744 41.55859578084497 47.54559818369201 0 0 0
128 3 -1.05 37.38527487318875 43.34468516473055 45.759508683175696 0 0 0
185 2 1.575 38.15893658033909 42.434586244774415 42.43609488563462 0 0 0
217 3 -1.05 37.31306751117658 41.318536537938506 43.69734172364174 0 0 0
218 3 -1.05 37.31099160437424 43.6927749681257 41.31976692360313 0 0 0
52 2 1.575 37.27000544865422 39.29986993206979 51.9075124321792 0 0 0
58 3 -1.05 37.36209727263645 39.24457308071633 49.98047488689999 0 0 0
70 2 1.575 37.28311296526799 47.60502174407862 51.80278495196619 0 0 0
72 2 1.575 37.28762884705309 45.51822183566431 49.71647458530295 0 0 0
75 3 -1.05 37.35910760247126 45.6699161670871 51.650204635798865 0 0 0
76 3 -1.05 37.363659417403085 47.456158284423104 49.861226249468835 0 0 0
190 2 1.575 38.09606529409212 42.381312589130125 50.79948598642929 0 0 0
219 3 -1.05 37.222477039669876 41.23852647147494 52.005845203740826 0 0 0
220 3 -1.05 37.266488819525044 43.584028301337504 49.61888196888053 0 0 0
460 2 1.575 38.09082514704995 46.52778548427464 54.94401260146578 0 0 0
481 3 -1.05 37.28864119445385 39.3731580860115 53.8329793790094 0 0 0
483 3 -1.05 37.22146065129814 45.315435317658874 56.085090238371116 0 0 0
485 3 -1.05 37.2592516467179 47.69948669446177 53.73554667051274 0 0 0
497 3 -1.05 37.29751581494848 39.16224275547665 58.15806677921865 0 0 0
511 2 1.575 37.26748683500117 45.413652569255156 58.02455389778593 0 0 0
515 3 -1.05 37.35728076076779 47.33911174708794 58.082503813971066 0 0 0
563 2 1.575 37.23763352653774 43.39477109670998 56.01328043816593 0 0 0
564 2 1.575 37.23853484553065 41.309184434530486 53.927403844305196 0 0 0
566 3 -1.05 37.306805365369634 41.47521819227318 55.84638034134117 0 0 0
567 3 -1.05 37.32985622234424 43.25932192988698 54.062214781867084 0 0 0
663 3 -1.05 37.28724055160257 43.48759484268253 57.94956939515802 0 0 0
133 2 1.575 37.277172631171965 51.89654762211629 39.30066463291396 0 0 0
136 3 -1.05 37.365931510745476 49.97016656085729 39.245512765535025 0 0 0
142 2 1.575 37.281110536723446 51.80039357337003 47.60924803313702 0 0 0
143 2 1.575 37.285013880774876 49.71078435464526 45.519272197416285 0 0 0
145 3 -1.05 37.36488525069349 49.860053667245246 47.45592135833066 0 0 0
146 3 -1.05 37.357666926409784 51.649058397847305 45.67335144864556 0 0 0
195 2 1.575 38.12001765117198 50.78750654780855 42.377766394899986 0 0 0
221 3 -1.05 37.280844726610646 49.61606951171657 43.58698294390941 0 0 0
222 3 -1.05 37.23772542043616 51.99826339681148 41.24460322557145 0 0 0
674 2 1.575 38.118616123377016 54.94691162298786 46.53593537344611 0 0 0
697 3 -1.05 37.30181700940995 53.82404452079746 39.380714326511814 0 0 0
698 3 -1.05 37.27996051472848 53.73391900673558 47.69604097845723 0 0 0
699 3 -1.05 37.24543484585909 56.07561995120968 45.3195088210193 0 0 0
707 2 1.575 37.250853301262744 56.00851896677192 43.3993502008686 0 0 0
709 2 1.575 37.24564437541456 53.91840835825781 41.314699746675444 0 0 0
712 3 -1.05 37.33917995254603 54.05448170372079 43.27178684454902 0 0 0
713 3 -1.05 37.32276934167063 55.83467768392521 41.483481758271175 0 0 0
782 3 -1.05 37.3087342843245 58.14315085722138 39.169921407695654 0 0 0
789 2 1.575 37.283625871445395 58.0192960284387 45.41540891628016 0 0 0
791 3 -1.05 37.3679360600187 58.075851367630925 47.340216934166946 0 0 0
880 3 -1.05 37.30132856963866 57.940519523553725 43.49081648117766 0 0 0
200 2 1.575 38.11942617599897 50.73044477954992 50.732737511946006 0 0 0
223 3 -1.05 37.26345015960397 49.53710407227004 51.89818927734317 0 0 0
224 3 -1.05 37.267262499090634 51.899324529323316 49.53798716739168 0 0 0
581 2 1.575 37.30770460376544 51.70263062554927 55.93586654025065 0 0 0
582 2 1.575 37.28807847403633 49.63311299546861 53.831582936604654 0 0 0
584 3 -1.05 37.370085882165576 49.76799563410065 55.76397162078516 0 0 0
585 3 -1.05 37.379540336731395 51.5594629706444 53.98187129730221 0 0 0
658 3 -1.05 37.34095840780355 51.79429446879421 57.87271033973371 0 0 0
716 2 1.575 37.31134677229705 55.93856271769026 51.701754469520445 0 0 0
718 2 1.575 37.29704873458571 53.83388749379417 49.63294298455305 0 0 0
721 3 -1.05 37.383225988303536 53.983931558757746 51.558964063490436 0 0 0
722 3 -1.05 37.3780888767771 55.765100451673526 49.76672027944924 0 0 0
878 3 -1.05 37.34368333994106 57.874768063865304 51.79436202476633 0 0 0
887 2 1.575 38.147437607775345 54.883102566894024 54.881470353768954 0 0 0
913 3 -1.05 37.30093074722262 53.62623780963171 56.0044972636567 0 0 0
915 3 -1.05 37.2995049333296 56.005398661048304 53.62554491036658 0 0 0
925 2 1.575 37.3335345745869 53.72592853108914 57.950180687174985 0 0 0
929 3 -1.05 37.43008276109371 55.6399431233737 57.99460426018389 0 0 0
975 3 -1.05 37.43006137120777 57.991464943957666 55.64122569551305 0 0 0
977 2 1.575 37.33476753634876 57.95080252786484 53.72607290861081 0 0 0
2 3 -1.05 39.376711820424724 45.51602897843601 45.51439745631671 0 0 0
3 3 -1.05 45.51245203153322 39.379952089093734 45.52013755825336 0 0 0
4 3 -1.05 45.5070931783651 45.50469736463043 39.37570899043181 0 0 0
5 3 -1.05 39.473554699883145 39.47285032227163 39.47768099200434 0 0 0
7 3 -1.05 45.52159571929908 45.52030373649735 47.73601982982159 0 0 0
8 3 -1.05 39.39149920867301 39.4013173605717 47.76055568499405 0 0 0
12 3 -1.05 45.44323127801564 47.62828693319417 45.54410815461566 0 0 0
13 3 -1.05 39.39691448710856 47.74797693803752 39.398623545456594 0 0 0
15 3 -1.05 39.29392110142609 47.68758211923888 47.686988861997484 0 0 0
22 3 -1.05 47.710549852761694 45.465010689438245 45.560459872454345 0 0 0
23 3 -1.05 47.74766962832092 39.395667921825705 39.40417670688591 0 0 0
25 3 -1.05 47.68286929188907 39.297022883347005 47.69412441125489 0 0 0
28 3 -1.05 47.697443130966846 47.69337680072749 39.301986001579934 0 0 0
29 2 1.575 46.5937058307783 46.58110322791287 46.59879077892035 0 0 0
30 3 -1.05 47.63564482577268 47.71158529138817 47.70108525993241 0 0 0
41 2 1.575 40.41554793271766 40.4199737201211 44.590707040977286 0 0 0
42 2 1.575 39.36259899649751 39.36250940095984 41.419408810340435 0 0 0
46 3 -1.05 39.34771572720529 39.351031844834836 43.506982165983025 0 0 0
60 2 1.575 39.300587951363475 47.727951312115934 41.38045220841919 0 0 0
62 2 1.575 39.29082995159719 45.53563125406485 43.50282704396971 0 0 0
64 3 -1.05 39.323626363504694 47.59778963716076 43.422640293090275 0 0 0
65 3 -1.05 39.34575820174613 45.685058835610896 41.50992713094402 0 0 0
78 2 1.575 47.733359096866984 39.30107087027777 41.3888806346878 0 0 0
79 2 1.575 45.537219001234625 39.292586254410296 43.50798339109842 0 0 0
82 3 -1.05 47.593374295970094 39.32447072840034 43.42972147338439 0 0 0
85 3 -1.05 45.68510159857079 39.34792088300336 41.51445557756818 0 0 0
96 1 1.05 47.63567146240531 47.62901093325407 41.43597059374407 0 0 0
97 1 1.05 45.59531091479253 47.644576003511666 43.474958106124404 0 0 0
98 1 1.05 47.649001664353236 45.57243562314685 43.45585144811429 0 0 0
99 2 1.575 45.59001913715272 45.5823279221294 41.428260836944325 0 0 0
100 3 -1.05 47.6120711837097 47.61191922654729 43.45813180801153 0 0 0
101 3 -1.05 47.545317587353516 45.56740528121719 41.40697522796612 0 0 0
102 3 -1.05 45.57044430552676 45.577520562662045 43.37762730493667 0 0 0
103 3 -1.05 45.575423683109754 47.53557336331304 41.40848437283145 0 0 0
113 2 1.575 40.42386364262627 44.585723951274545 40.42232205427586 0 0 0
114 2 1.575 39.36470645670051 41.41624729320095 39.36633532133017 0 0 0
120 3 -1.05 39.351955129968154 43.50003352493583 39.35548349398419 0 0 0
123 2 1.575 39.28681413247023 41.3812091573053 47.735744495979354 0 0 0
126 2 1.575 39.28879154606218 43.50519177782999 45.5414316697248 0 0 0
129 3 -1.05 39.32183086372482 43.41208494140779 47.61375934308032 0 0 0
130 3 -1.05 39.345773566480894 41.507419965296435 45.69815039474598 0 0 0
150 2 1.575 47.73130938189437 41.37854742125446 39.30314498846967 0 0 0
151 2 1.575 45.53793415754717 43.50399134513306 39.29886843033497 0 0 0
154 3 -1.05 45.68927812849762 41.50514419952763 39.34756909056981 0 0 0
156 3 -1.05 47.60637142211936 43.411122441598 39.325892152530336 0 0 0
159 1 1.05 47.63004774544553 41.40275242455881 47.6564438363705 0 0 0
160 1 1.05 45.559479780104695 43.468553121401584 47.65002013644771 0 0 0
161 2 1.575 45.57227681806043 41.412133469696705 45.587764329917384 0 0 0
162 2 1.575 47.65104594830519 43.47388271692823 45.55547845983651 0 0 0
163 3 -1.05 45.574058855363766 41.41329302971915 47.54371929615935 0 0 0
164 3 -1.05 45.63835984309462 43.39502499646267 45.580617608392416 0 0 0
165 3 -1.05 47.61492377073477 43.44719595202373 47.540105943374634 0 0 0
166 3 -1.05 47.55131313429206 41.47743433312468 45.576596771935776 0 0 0
186 3 -1.05 45.56698231198239 41.29821058576857 43.583789073504846 0 0 0
187 3 -1.05 39.317557759027885 43.56428389470216 43.571210596618144 0 0 0
188 3 -1.05 39.46299576664006 41.39995910284488 41.405623760741676 0 0 0
189 3 -1.05 45.56655331340291 43.56389878812722 41.301259147396145 0 0 0
205 2 1.575 46.60579369255521 42.42550534495712 42.42987097750788 0 0 0
206 3 -1.05 47.646595962163516 43.48164225402453 43.58599137348748 0 0 0
207 3 -1.05 47.678633693988544 41.30910620952255 41.312589072530834 0 0 0
225 2 1.575 44.58758169130609 40.42372381174898 40.42458687525707 0 0 0
227 2 1.575 41.4178241022934 39.36444126652503 39.36768424144252 0 0 0
231 3 -1.05 43.50018004768392 39.3527698351236 39.357702805165374 0 0 0
236 2 1.575 41.37103200857719 39.297476198489676 47.73441253998038 0 0 0
238 2 1.575 43.50334146043957 39.295458773139025 45.54261703603936 0 0 0
240 3 -1.05 43.40417612235873 39.33264077285124 47.61885168991397 0 0 0
241 3 -1.05 41.503105534371755 39.352595556797986 45.69986109254047 0 0 0
245 2 1.575 41.38120475867424 47.727780800723245 39.29993590518428 0 0 0
246 2 1.575 43.507360254565754 45.534608596173534 39.298256156897075 0 0 0
249 3 -1.05 43.41092421696127 47.60501338864258 39.32444920007234 0 0 0
251 3 -1.05 41.50609033864499 45.68831546596297 39.34706875511906 0 0 0
253 2 1.575 41.406361069484724 45.56791105283205 45.58716023171959 0 0 0
254 1 1.05 41.4001892982446 47.63067175607782 47.651452060643614 0 0 0
255 1 1.05 43.47040557708148 45.555004581071415 47.64737827584431 0 0 0
256 2 1.575 43.486993969748205 47.64063682477094 45.569459418841475 0 0 0
257 3 -1.05 43.38414894180062 45.63474294535955 45.57001893927994 0 0 0
258 3 -1.05 43.445342374215414 47.62471153976133 47.540087615738855 0 0 0
259 3 -1.05 41.47417166484756 47.544257751602935 45.5746726454369 0 0 0
260 3 -1.05 41.414031988895125 45.574196537941795 47.54220523767306 0 0 0
298 3 -1.05 41.39875849251464 39.46374659876276 41.40709422397333 0 0 0
299 3 -1.05 43.56571196215186 45.568694094381605 41.30184791270405 0 0 0
300 3 -1.05 43.56231273087611 39.320061241996385 43.574220846911295 0 0 0
301 3 -1.05 41.297681802283414 45.573054967614965 43.57883337154564 0 0 0
307 2 1.575 42.42926393717802 46.607413582020186 42.42673232245624 0 0 0
308 3 -1.05 41.305232626419794 47.676553532755236 41.31190266587718 0 0 0
309 3 -1.05 43.458088451388605 47.713309178333354 43.56777667917 0 0 0
338 3 -1.05 43.561854569004495 43.560720686875854 39.3231156936217 0 0 0
339 3 -1.05 41.39984771658211 41.40019967027787 39.468260242860474 0 0 0
340 3 -1.05 41.29668910062794 43.57383600063048 45.57677009306201 0 0 0
341 3 -1.05 43.57222905018335 41.30259516907621 45.57916046347653 0 0 0
342 2 1.575 42.412127304672346 42.417208352573326 46.60508244510531 0 0 0
343 3 -1.05 43.48137948416007 43.466786307263185 47.74742438780655 0 0 0
344 3 -1.05 41.30358770099988 41.30972591860824 47.69807204195944 0 0 0
377 2 1.575 44.55547758012083 44.552658834396965 44.56000621407482 0 0 0
378 1 1.05 43.49543919439634 43.494027691205545 41.45976965790159 0 0 0
379 1 1.05 43.489816495554905 41.44602944275711 43.49357536099681 0 0 0
380 1 1.05 41.44529603964192 43.490422548680584 43.49267555076633 0 0 0
381 2 1.575 41.47492549931203 41.47485423235453 41.47842834614405 0 0 0
382 3 -1.05 41.46117545768728 43.44148855689751 41.46895198480797 0 0 0