LAMMPS data file. CGCMM style. atom_style charge generated by VMD/TopoTools v1.8 on Fri Apr 02 13:13:20 CEST 2021
 903 atoms
 3 atom types
 -0.000099 49.999901  xlo xhi
 -0.000049 49.999951  ylo yhi
 -0.000049 49.999951  zlo zhi

Masses

1 15.9994
2 55.845001
3 55.845001

Pair Coeffs # lj/cut/coul/long

1 0.00673881 3.16554
2 3.91428e-07 4.07222
3 3.91428e-07 4.07222

 Atoms # charge

1 1 -1.050000 13.229500 21.762899 28.237000 # 1
2 1 -1.050000 13.229600 23.970400 26.029499 # 1
3 1 -1.050000 13.229600 26.029499 23.970400 # 1
4 1 -1.050000 13.229600 28.237000 21.763000 # 1
5 2 1.050000 13.266700 19.666700 28.200001 # 2
6 2 1.050000 13.266700 21.799999 21.799999 # 2
7 2 1.050000 13.266700 21.799999 30.333298 # 2
8 2 1.050000 13.266700 23.933399 23.933399 # 2
9 2 1.050000 13.266700 26.066601 26.066601 # 2
10 2 1.050000 13.266700 28.200001 19.666700 # 2
11 2 1.050000 13.266700 28.200001 28.200001 # 2
12 2 1.050000 13.266700 30.333298 21.799999 # 2
13 1 -1.050000 13.303800 19.629601 26.103701 # 1
14 1 -1.050000 13.303800 21.837101 23.896299 # 1
15 1 -1.050000 13.303800 23.896299 21.837101 # 1
16 1 -1.050000 13.303800 23.896299 30.370300 # 1
17 1 -1.050000 13.303800 26.103701 19.629601 # 1
18 1 -1.050000 13.303800 26.103701 28.162800 # 1
19 1 -1.050000 13.303800 28.162800 26.103701 # 1
20 1 -1.050000 13.303800 30.370300 23.896299 # 1
21 2 1.050000 14.333401 18.600000 22.866699 # 2
22 2 1.050000 14.333401 22.866699 18.600000 # 2
23 2 1.050000 14.333401 22.866699 27.133301 # 2
24 2 1.050000 14.333401 27.133301 22.866699 # 2
25 2 1.050000 14.333401 27.133301 31.400002 # 2
26 2 1.050000 14.333401 31.400002 27.133301 # 2
27 1 -1.050000 15.362900 17.570400 26.103701 # 1
28 1 -1.050000 15.362900 19.629601 19.629601 # 1
29 1 -1.050000 15.362900 19.629601 28.162800 # 1
30 1 -1.050000 15.362900 21.837101 21.837101 # 1
31 1 -1.050000 15.362900 21.837101 30.370300 # 1
32 1 -1.050000 15.362900 23.896299 23.896299 # 1
33 1 -1.050000 15.362900 23.896299 32.429501 # 1
34 1 -1.050000 15.362900 26.103701 17.570400 # 1
35 1 -1.050000 15.362900 26.103701 26.103701 # 1
36 1 -1.050000 15.362900 28.162800 19.629601 # 1
37 1 -1.050000 15.362900 28.162800 28.162800 # 1
38 1 -1.050000 15.362900 30.370300 21.837101 # 1
39 1 -1.050000 15.362900 30.370300 30.370300 # 1
40 1 -1.050000 15.362900 32.429501 23.896299 # 1
41 2 1.050000 15.400000 17.533400 19.666700 # 2
42 2 1.050000 15.400000 17.533400 28.200001 # 2
43 2 1.050000 15.400000 19.666700 17.533400 # 2
44 2 1.050000 15.400000 19.666700 26.066601 # 2
45 2 1.050000 15.400000 21.799999 23.933399 # 2
46 2 1.050000 15.400000 21.799999 32.466599 # 2
47 2 1.050000 15.400000 23.933399 21.799999 # 2
48 2 1.050000 15.400000 23.933399 30.333298 # 2
49 2 1.050000 15.400000 26.066601 19.666700 # 2
50 2 1.050000 15.400000 26.066601 28.200001 # 2
51 2 1.050000 15.400000 28.200001 17.533400 # 2
52 2 1.050000 15.400000 28.200001 26.066601 # 2
53 2 1.050000 15.400000 30.333298 23.933399 # 2
54 2 1.050000 15.400000 30.333298 32.466599 # 2
55 2 1.050000 15.400000 32.466599 21.799999 # 2
56 2 1.050000 15.400000 32.466599 30.333298 # 2
57 1 -1.050000 15.437199 17.496201 21.763000 # 1
58 1 -1.050000 15.437199 17.496201 30.296101 # 1
59 1 -1.050000 15.437199 19.703701 23.970400 # 1
60 1 -1.050000 15.437199 19.703701 32.503700 # 1
61 1 -1.050000 15.437199 21.763000 17.496201 # 1
62 1 -1.050000 15.437199 21.763000 26.029499 # 1
63 1 -1.050000 15.437199 23.970400 19.703701 # 1
64 1 -1.050000 15.437199 23.970400 28.237000 # 1
65 1 -1.050000 15.437199 26.029499 21.763000 # 1
66 1 -1.050000 15.437199 26.029499 30.296101 # 1
67 1 -1.050000 15.437199 28.237000 23.970400 # 1
68 1 -1.050000 15.437199 28.237000 32.503700 # 1
69 1 -1.050000 15.437199 30.296101 17.496201 # 1
70 1 -1.050000 15.437199 30.296101 26.029499 # 1
71 1 -1.050000 15.437199 32.503700 19.703701 # 1
72 1 -1.050000 15.437199 32.503700 28.237000 # 1
73 2 1.050000 16.466700 16.466700 25.000000 # 2
74 2 1.050000 16.466700 20.733400 20.733400 # 2
75 2 1.050000 16.466700 20.733400 29.266600 # 2
76 2 1.050000 16.466700 25.000000 16.466700 # 2
77 2 1.050000 16.466700 25.000000 25.000000 # 2
78 2 1.050000 16.466700 25.000000 33.533302 # 2
79 2 1.050000 16.466700 29.266600 20.733400 # 2
80 2 1.050000 16.466700 29.266600 29.266600 # 2
81 2 1.050000 16.466700 33.533302 25.000000 # 2
82 1 -1.050000 17.496201 15.437199 21.763000 # 1
83 1 -1.050000 17.496201 15.437199 30.296101 # 1
84 1 -1.050000 17.496201 17.496201 19.703701 # 1
85 1 -1.050000 17.496201 17.496201 28.237000 # 1
86 1 -1.050000 17.496201 19.703701 17.496201 # 1
87 1 -1.050000 17.496201 19.703701 26.029499 # 1
88 1 -1.050000 17.496201 19.703701 34.562801 # 1
89 1 -1.050000 17.496201 21.763000 15.437199 # 1
90 1 -1.050000 17.496201 21.763000 23.970400 # 1
91 1 -1.050000 17.496201 21.763000 32.503700 # 1
92 1 -1.050000 17.496201 23.970400 21.763000 # 1
93 1 -1.050000 17.496201 23.970400 30.296101 # 1
94 1 -1.050000 17.496201 26.029499 19.703701 # 1
95 1 -1.050000 17.496201 26.029499 28.237000 # 1
96 1 -1.050000 17.496201 28.237000 17.496201 # 1
97 1 -1.050000 17.496201 28.237000 26.029499 # 1
98 1 -1.050000 17.496201 28.237000 34.562801 # 1
99 1 -1.050000 17.496201 30.296101 15.437199 # 1
100 1 -1.050000 17.496201 30.296101 23.970400 # 1
101 1 -1.050000 17.496201 30.296101 32.503700 # 1
102 1 -1.050000 17.496201 32.503700 21.763000 # 1
103 1 -1.050000 17.496201 32.503700 30.296101 # 1
104 1 -1.050000 17.496201 34.562801 19.703701 # 1
105 1 -1.050000 17.496201 34.562801 28.237000 # 1
106 2 1.050000 17.533400 15.400000 19.666700 # 2
107 2 1.050000 17.533400 15.400000 28.200001 # 2
108 2 1.050000 17.533400 17.533400 21.799999 # 2
109 2 1.050000 17.533400 17.533400 30.333298 # 2
110 2 1.050000 17.533400 19.666700 15.400000 # 2
111 2 1.050000 17.533400 19.666700 23.933399 # 2
112 2 1.050000 17.533400 19.666700 32.466599 # 2
113 2 1.050000 17.533400 21.799999 17.533400 # 2
114 2 1.050000 17.533400 21.799999 26.066601 # 2
115 2 1.050000 17.533400 21.799999 34.599998 # 2
116 2 1.050000 17.533400 23.933399 19.666700 # 2
117 2 1.050000 17.533400 23.933399 28.200001 # 2
118 2 1.050000 17.533400 26.066601 21.799999 # 2
119 2 1.050000 17.533400 26.066601 30.333298 # 2
120 2 1.050000 17.533400 28.200001 15.400000 # 2
121 2 1.050000 17.533400 28.200001 23.933399 # 2
122 2 1.050000 17.533400 28.200001 32.466599 # 2
123 2 1.050000 17.533400 30.333298 17.533400 # 2
124 2 1.050000 17.533400 30.333298 26.066601 # 2
125 2 1.050000 17.533400 30.333298 34.599998 # 2
126 2 1.050000 17.533400 32.466599 19.666700 # 2
127 2 1.050000 17.533400 32.466599 28.200001 # 2
128 2 1.050000 17.533400 34.599998 21.799999 # 2
129 2 1.050000 17.533400 34.599998 30.333298 # 2
130 1 -1.050000 17.570400 15.362900 26.103701 # 1
131 1 -1.050000 17.570400 17.570400 23.896299 # 1
132 1 -1.050000 17.570400 17.570400 32.429501 # 1
133 1 -1.050000 17.570400 19.629601 21.837101 # 1
134 1 -1.050000 17.570400 19.629601 30.370300 # 1
135 1 -1.050000 17.570400 21.837101 19.629601 # 1
136 1 -1.050000 17.570400 21.837101 28.162800 # 1
137 1 -1.050000 17.570400 23.896299 17.570400 # 1
138 1 -1.050000 17.570400 23.896299 26.103701 # 1
139 1 -1.050000 17.570400 23.896299 34.637001 # 1
140 1 -1.050000 17.570400 26.103701 15.362900 # 1
141 1 -1.050000 17.570400 26.103701 23.896299 # 1
142 1 -1.050000 17.570400 26.103701 32.429501 # 1
143 1 -1.050000 17.570400 28.162800 21.837101 # 1
144 1 -1.050000 17.570400 28.162800 30.370300 # 1
145 1 -1.050000 17.570400 30.370300 19.629601 # 1
146 1 -1.050000 17.570400 30.370300 28.162800 # 1
147 1 -1.050000 17.570400 32.429501 17.570400 # 1
148 1 -1.050000 17.570400 32.429501 26.103701 # 1
149 1 -1.050000 17.570400 34.637001 23.896299 # 1
150 2 1.050000 18.600000 14.333401 22.866699 # 2
151 2 1.050000 18.600000 18.600000 18.600000 # 2
152 2 1.050000 18.600000 18.600000 27.133301 # 2
153 2 1.050000 18.600000 22.866699 14.333401 # 2
154 2 1.050000 18.600000 22.866699 22.866699 # 2
155 2 1.050000 18.600000 22.866699 31.400002 # 2
156 2 1.050000 18.600000 27.133301 18.600000 # 2
157 2 1.050000 18.600000 27.133301 27.133301 # 2
158 2 1.050000 18.600000 27.133301 35.666599 # 2
159 2 1.050000 18.600000 31.400002 22.866699 # 2
160 2 1.050000 18.600000 31.400002 31.400002 # 2
161 2 1.050000 18.600000 35.666599 27.133301 # 2
162 1 -1.050000 19.629601 13.303800 26.103701 # 1
163 1 -1.050000 19.629601 15.362900 19.629601 # 1
164 1 -1.050000 19.629601 15.362900 28.162800 # 1
165 1 -1.050000 19.629601 17.570400 21.837101 # 1
166 1 -1.050000 19.629601 17.570400 30.370300 # 1
167 1 -1.050000 19.629601 19.629601 15.362900 # 1
168 1 -1.050000 19.629601 19.629601 23.896299 # 1
169 1 -1.050000 19.629601 19.629601 32.429501 # 1
170 1 -1.050000 19.629601 21.837101 17.570400 # 1
171 1 -1.050000 19.629601 21.837101 26.103701 # 1
172 1 -1.050000 19.629601 21.837101 34.637001 # 1
173 1 -1.050000 19.629601 23.896299 19.629601 # 1
174 1 -1.050000 19.629601 23.896299 28.162800 # 1
175 1 -1.050000 19.629601 23.896299 36.696201 # 1
176 1 -1.050000 19.629601 26.103701 13.303800 # 1
177 1 -1.050000 19.629601 26.103701 21.837101 # 1
178 1 -1.050000 19.629601 26.103701 30.370300 # 1
179 1 -1.050000 19.629601 28.162800 15.362900 # 1
180 1 -1.050000 19.629601 28.162800 23.896299 # 1
181 1 -1.050000 19.629601 28.162800 32.429501 # 1
182 1 -1.050000 19.629601 30.370300 17.570400 # 1
183 1 -1.050000 19.629601 30.370300 26.103701 # 1
184 1 -1.050000 19.629601 30.370300 34.637001 # 1
185 1 -1.050000 19.629601 32.429501 19.629601 # 1
186 1 -1.050000 19.629601 32.429501 28.162800 # 1
187 1 -1.050000 19.629601 34.637001 21.837101 # 1
188 1 -1.050000 19.629601 34.637001 30.370300 # 1
189 1 -1.050000 19.629601 36.696201 23.896299 # 1
190 2 1.050000 19.666700 13.266700 28.200001 # 2
191 2 1.050000 19.666700 15.400000 17.533400 # 2
192 2 1.050000 19.666700 15.400000 26.066601 # 2
193 2 1.050000 19.666700 17.533400 15.400000 # 2
194 2 1.050000 19.666700 17.533400 23.933399 # 2
195 2 1.050000 19.666700 17.533400 32.466599 # 2
196 2 1.050000 19.666700 19.666700 21.799999 # 2
197 2 1.050000 19.666700 19.666700 30.333298 # 2
198 2 1.050000 19.666700 21.799999 19.666700 # 2
199 2 1.050000 19.666700 21.799999 28.200001 # 2
200 2 1.050000 19.666700 21.799999 36.733299 # 2
201 2 1.050000 19.666700 23.933399 17.533400 # 2
202 2 1.050000 19.666700 23.933399 26.066601 # 2
203 2 1.050000 19.666700 23.933399 34.599998 # 2
204 2 1.050000 19.666700 26.066601 15.400000 # 2
205 2 1.050000 19.666700 26.066601 23.933399 # 2
206 2 1.050000 19.666700 26.066601 32.466599 # 2
207 2 1.050000 19.666700 28.200001 13.266700 # 2
208 2 1.050000 19.666700 28.200001 21.799999 # 2
209 2 1.050000 19.666700 28.200001 30.333298 # 2
210 2 1.050000 19.666700 30.333298 19.666700 # 2
211 2 1.050000 19.666700 30.333298 28.200001 # 2
212 2 1.050000 19.666700 32.466599 17.533400 # 2
213 2 1.050000 19.666700 32.466599 26.066601 # 2
214 2 1.050000 19.666700 32.466599 34.599998 # 2
215 2 1.050000 19.666700 34.599998 23.933399 # 2
216 2 1.050000 19.666700 34.599998 32.466599 # 2
217 2 1.050000 19.666700 36.733299 21.799999 # 2
218 1 -1.050000 19.703701 15.437199 23.970400 # 1
219 1 -1.050000 19.703701 15.437199 32.503700 # 1
220 1 -1.050000 19.703701 17.496201 17.496201 # 1
221 1 -1.050000 19.703701 17.496201 26.029499 # 1
222 1 -1.050000 19.703701 17.496201 34.562801 # 1
223 1 -1.050000 19.703701 19.703701 19.703701 # 1
224 1 -1.050000 19.703701 19.703701 28.237000 # 1
225 1 -1.050000 19.703701 21.763000 21.763000 # 1
226 1 -1.050000 19.703701 21.763000 30.296101 # 1
227 1 -1.050000 19.703701 23.970400 15.437199 # 1
228 1 -1.050000 19.703701 23.970400 23.970400 # 1
229 1 -1.050000 19.703701 23.970400 32.503700 # 1
230 1 -1.050000 19.703701 26.029499 17.496201 # 1
231 1 -1.050000 19.703701 26.029499 26.029499 # 1
232 1 -1.050000 19.703701 26.029499 34.562801 # 1
233 1 -1.050000 19.703701 28.237000 19.703701 # 1
234 1 -1.050000 19.703701 28.237000 28.237000 # 1
235 1 -1.050000 19.703701 30.296101 21.763000 # 1
236 1 -1.050000 19.703701 30.296101 30.296101 # 1
237 1 -1.050000 19.703701 32.503700 15.437199 # 1
238 1 -1.050000 19.703701 32.503700 23.970400 # 1
239 1 -1.050000 19.703701 32.503700 32.503700 # 1
240 1 -1.050000 19.703701 34.562801 17.496201 # 1
241 1 -1.050000 19.703701 34.562801 26.029499 # 1
242 2 1.050000 20.733400 16.466700 20.733400 # 2
243 2 1.050000 20.733400 16.466700 29.266600 # 2
244 2 1.050000 20.733400 20.733400 16.466700 # 2
245 2 1.050000 20.733400 20.733400 25.000000 # 2
246 2 1.050000 20.733400 20.733400 33.533302 # 2
247 2 1.050000 20.733400 25.000000 20.733400 # 2
248 2 1.050000 20.733400 25.000000 29.266600 # 2
249 2 1.050000 20.733400 29.266600 16.466700 # 2
250 2 1.050000 20.733400 29.266600 25.000000 # 2
251 2 1.050000 20.733400 29.266600 33.533302 # 2
252 2 1.050000 20.733400 33.533302 20.733400 # 2
253 2 1.050000 20.733400 33.533302 29.266600 # 2
254 1 -1.050000 21.763000 13.229600 28.237000 # 1
255 1 -1.050000 21.763000 15.437199 17.496201 # 1
256 1 -1.050000 21.763000 15.437199 26.029499 # 1
257 1 -1.050000 21.763000 17.496201 15.437199 # 1
258 1 -1.050000 21.763000 17.496201 23.970400 # 1
259 1 -1.050000 21.763000 17.496201 32.503700 # 1
260 1 -1.050000 21.763000 19.703701 21.763000 # 1
261 1 -1.050000 21.763000 19.703701 30.296101 # 1
262 1 -1.050000 21.763000 21.763000 19.703701 # 1
263 1 -1.050000 21.763000 21.763000 28.237000 # 1
264 1 -1.050000 21.763000 21.763000 36.770302 # 1
265 1 -1.050000 21.763000 23.970400 17.496201 # 1
266 1 -1.050000 21.763000 23.970400 26.029499 # 1
267 1 -1.050000 21.763000 23.970400 34.562801 # 1
268 1 -1.050000 21.763000 26.029499 15.437199 # 1
269 1 -1.050000 21.763000 26.029499 23.970400 # 1
270 1 -1.050000 21.763000 26.029499 32.503700 # 1
271 1 -1.050000 21.763000 28.237000 13.229600 # 1
272 1 -1.050000 21.763000 28.237000 21.763000 # 1
273 1 -1.050000 21.763000 28.237000 30.296101 # 1
274 1 -1.050000 21.763000 30.296101 19.703701 # 1
275 1 -1.050000 21.763000 30.296101 28.237000 # 1
276 1 -1.050000 21.763000 32.503700 17.496201 # 1
277 1 -1.050000 21.763000 32.503700 26.029499 # 1
278 1 -1.050000 21.763000 32.503700 34.562801 # 1
279 1 -1.050000 21.763000 34.562801 23.970400 # 1
280 1 -1.050000 21.763000 34.562801 32.503700 # 1
281 1 -1.050000 21.763000 36.770302 21.763000 # 1
282 2 1.050000 21.799999 13.266700 21.799999 # 2
283 2 1.050000 21.799999 13.266700 30.333298 # 2
284 2 1.050000 21.799999 15.400000 23.933399 # 2
285 2 1.050000 21.799999 15.400000 32.466599 # 2
286 2 1.050000 21.799999 17.533400 17.533400 # 2
287 2 1.050000 21.799999 17.533400 26.066601 # 2
288 2 1.050000 21.799999 17.533400 34.599998 # 2
289 2 1.050000 21.799999 19.666700 19.666700 # 2
290 2 1.050000 21.799999 19.666700 28.200001 # 2
291 2 1.050000 21.799999 19.666700 36.733299 # 2
292 2 1.050000 21.799999 21.799999 13.266700 # 2
293 2 1.050000 21.799999 21.799999 21.799999 # 2
294 2 1.050000 21.799999 21.799999 30.333298 # 2
295 2 1.050000 21.799999 23.933399 15.400000 # 2
296 2 1.050000 21.799999 23.933399 23.933399 # 2
297 2 1.050000 21.799999 23.933399 32.466599 # 2
298 2 1.050000 21.799999 26.066601 17.533400 # 2
299 2 1.050000 21.799999 26.066601 26.066601 # 2
300 2 1.050000 21.799999 26.066601 34.599998 # 2
301 2 1.050000 21.799999 28.200001 19.666700 # 2
302 2 1.050000 21.799999 28.200001 28.200001 # 2
303 2 1.050000 21.799999 28.200001 36.733299 # 2
304 2 1.050000 21.799999 30.333298 13.266700 # 2
305 2 1.050000 21.799999 30.333298 21.799999 # 2
306 2 1.050000 21.799999 30.333298 30.333298 # 2
307 2 1.050000 21.799999 32.466599 15.400000 # 2
308 2 1.050000 21.799999 32.466599 23.933399 # 2
309 2 1.050000 21.799999 32.466599 32.466599 # 2
310 2 1.050000 21.799999 34.599998 17.533400 # 2
311 2 1.050000 21.799999 34.599998 26.066601 # 2
312 2 1.050000 21.799999 36.733299 19.666700 # 2
313 2 1.050000 21.799999 36.733299 28.200001 # 2
314 1 -1.050000 21.837101 13.303800 23.896299 # 1
315 1 -1.050000 21.837101 15.362900 21.837101 # 1
316 1 -1.050000 21.837101 15.362900 30.370300 # 1
317 1 -1.050000 21.837101 17.570400 19.629601 # 1
318 1 -1.050000 21.837101 17.570400 28.162800 # 1
319 1 -1.050000 21.837101 19.629601 17.570400 # 1
320 1 -1.050000 21.837101 19.629601 26.103701 # 1
321 1 -1.050000 21.837101 19.629601 34.637001 # 1
322 1 -1.050000 21.837101 21.837101 15.362900 # 1
323 1 -1.050000 21.837101 21.837101 23.896299 # 1
324 1 -1.050000 21.837101 21.837101 32.429501 # 1
325 1 -1.050000 21.837101 23.896299 13.303800 # 1
326 1 -1.050000 21.837101 23.896299 21.837101 # 1
327 1 -1.050000 21.837101 23.896299 30.370300 # 1
328 1 -1.050000 21.837101 26.103701 19.629601 # 1
329 1 -1.050000 21.837101 26.103701 28.162800 # 1
330 1 -1.050000 21.837101 26.103701 36.696201 # 1
331 1 -1.050000 21.837101 28.162800 17.570400 # 1
332 1 -1.050000 21.837101 28.162800 26.103701 # 1
333 1 -1.050000 21.837101 28.162800 34.637001 # 1
334 1 -1.050000 21.837101 30.370300 15.362900 # 1
335 1 -1.050000 21.837101 30.370300 23.896299 # 1
336 1 -1.050000 21.837101 30.370300 32.429501 # 1
337 1 -1.050000 21.837101 32.429501 21.837101 # 1
338 1 -1.050000 21.837101 32.429501 30.370300 # 1
339 1 -1.050000 21.837101 34.637001 19.629601 # 1
340 1 -1.050000 21.837101 34.637001 28.162800 # 1
341 1 -1.050000 21.837101 36.696201 26.103701 # 1
342 2 1.050000 22.866699 14.333401 18.600000 # 2
343 2 1.050000 22.866699 14.333401 27.133301 # 2
344 2 1.050000 22.866699 18.600000 14.333401 # 2
345 2 1.050000 22.866699 18.600000 22.866699 # 2
346 2 1.050000 22.866699 18.600000 31.400002 # 2
347 2 1.050000 22.866699 22.866699 18.600000 # 2
348 2 1.050000 22.866699 22.866699 27.133301 # 2
349 2 1.050000 22.866699 22.866699 35.666599 # 2
350 2 1.050000 22.866699 27.133301 14.333401 # 2
351 2 1.050000 22.866699 27.133301 22.866699 # 2
352 2 1.050000 22.866699 27.133301 31.400002 # 2
353 2 1.050000 22.866699 31.400002 18.600000 # 2
354 2 1.050000 22.866699 31.400002 27.133301 # 2
355 2 1.050000 22.866699 31.400002 35.666599 # 2
356 2 1.050000 22.866699 35.666599 22.866699 # 2
357 2 1.050000 22.866699 35.666599 31.400002 # 2
358 1 -1.050000 23.896299 13.303800 21.837101 # 1
359 1 -1.050000 23.896299 13.303800 30.370300 # 1
360 1 -1.050000 23.896299 15.362900 23.896299 # 1
361 1 -1.050000 23.896299 15.362900 32.429501 # 1
362 1 -1.050000 23.896299 17.570400 17.570400 # 1
363 1 -1.050000 23.896299 17.570400 26.103701 # 1
364 1 -1.050000 23.896299 17.570400 34.637001 # 1
365 1 -1.050000 23.896299 19.629601 19.629601 # 1
366 1 -1.050000 23.896299 19.629601 28.162800 # 1
367 1 -1.050000 23.896299 19.629601 36.696201 # 1
368 1 -1.050000 23.896299 21.837101 13.303800 # 1
369 1 -1.050000 23.896299 21.837101 21.837101 # 1
370 1 -1.050000 23.896299 21.837101 30.370300 # 1
371 1 -1.050000 23.896299 23.896299 15.362900 # 1
372 1 -1.050000 23.896299 23.896299 23.896299 # 1
373 1 -1.050000 23.896299 23.896299 32.429501 # 1
374 1 -1.050000 23.896299 26.103701 17.570400 # 1
375 1 -1.050000 23.896299 26.103701 26.103701 # 1
376 1 -1.050000 23.896299 26.103701 34.637001 # 1
377 1 -1.050000 23.896299 28.162800 19.629601 # 1
378 1 -1.050000 23.896299 28.162800 28.162800 # 1
379 1 -1.050000 23.896299 28.162800 36.696201 # 1
380 1 -1.050000 23.896299 30.370300 13.303800 # 1
381 1 -1.050000 23.896299 30.370300 21.837101 # 1
382 1 -1.050000 23.896299 30.370300 30.370300 # 1
383 1 -1.050000 23.896299 32.429501 15.362900 # 1
384 1 -1.050000 23.896299 32.429501 23.896299 # 1
385 1 -1.050000 23.896299 32.429501 32.429501 # 1
386 1 -1.050000 23.896299 34.637001 17.570400 # 1
387 1 -1.050000 23.896299 34.637001 26.103701 # 1
388 1 -1.050000 23.896299 36.696201 19.629601 # 1
389 1 -1.050000 23.896299 36.696201 28.162800 # 1
390 2 1.050000 23.933399 13.266700 23.933399 # 2
391 2 1.050000 23.933399 15.400000 21.799999 # 2
392 2 1.050000 23.933399 15.400000 30.333298 # 2
393 2 1.050000 23.933399 17.533400 19.666700 # 2
394 2 1.050000 23.933399 17.533400 28.200001 # 2
395 2 1.050000 23.933399 19.666700 17.533400 # 2
396 2 1.050000 23.933399 19.666700 26.066601 # 2
397 2 1.050000 23.933399 19.666700 34.599998 # 2
398 2 1.050000 23.933399 21.799999 15.400000 # 2
399 2 1.050000 23.933399 21.799999 23.933399 # 2
400 2 1.050000 23.933399 21.799999 32.466599 # 2
401 2 1.050000 23.933399 23.933399 13.266700 # 2
402 2 1.050000 23.933399 23.933399 21.799999 # 2
403 2 1.050000 23.933399 23.933399 30.333298 # 2
404 2 1.050000 23.933399 26.066601 19.666700 # 2
405 2 1.050000 23.933399 26.066601 28.200001 # 2
406 2 1.050000 23.933399 26.066601 36.733299 # 2
407 2 1.050000 23.933399 28.200001 17.533400 # 2
408 2 1.050000 23.933399 28.200001 26.066601 # 2
409 2 1.050000 23.933399 28.200001 34.599998 # 2
410 2 1.050000 23.933399 30.333298 15.400000 # 2
411 2 1.050000 23.933399 30.333298 23.933399 # 2
412 2 1.050000 23.933399 30.333298 32.466599 # 2
413 2 1.050000 23.933399 32.466599 21.799999 # 2
414 2 1.050000 23.933399 32.466599 30.333298 # 2
415 2 1.050000 23.933399 34.599998 19.666700 # 2
416 2 1.050000 23.933399 34.599998 28.200001 # 2
417 2 1.050000 23.933399 36.733299 26.066601 # 2
418 1 -1.050000 23.970400 13.229600 26.029499 # 1
419 1 -1.050000 23.970400 15.437199 19.703701 # 1
420 1 -1.050000 23.970400 15.437199 28.237000 # 1
421 1 -1.050000 23.970400 17.496201 21.763000 # 1
422 1 -1.050000 23.970400 17.496201 30.296101 # 1
423 1 -1.050000 23.970400 19.703701 15.437199 # 1
424 1 -1.050000 23.970400 19.703701 23.970400 # 1
425 1 -1.050000 23.970400 19.703701 32.503700 # 1
426 1 -1.050000 23.970400 21.763000 17.496201 # 1
427 1 -1.050000 23.970400 21.763000 26.029499 # 1
428 1 -1.050000 23.970400 21.763000 34.562801 # 1
429 1 -1.050000 23.970400 23.970400 19.703701 # 1
430 1 -1.050000 23.970400 23.970400 28.237000 # 1
431 1 -1.050000 23.970400 23.970400 36.770302 # 1
432 1 -1.050000 23.970400 26.029499 13.229600 # 1
433 1 -1.050000 23.970400 26.029499 21.763000 # 1
434 1 -1.050000 23.970400 26.029499 30.296101 # 1
435 1 -1.050000 23.970400 28.237000 15.437199 # 1
436 1 -1.050000 23.970400 28.237000 23.970400 # 1
437 1 -1.050000 23.970400 28.237000 32.503700 # 1
438 1 -1.050000 23.970400 30.296101 17.496201 # 1
439 1 -1.050000 23.970400 30.296101 26.029499 # 1
440 1 -1.050000 23.970400 30.296101 34.562801 # 1
441 1 -1.050000 23.970400 32.503700 19.703701 # 1
442 1 -1.050000 23.970400 32.503700 28.237000 # 1
443 1 -1.050000 23.970400 34.562801 21.763000 # 1
444 1 -1.050000 23.970400 34.562801 30.296101 # 1
445 1 -1.050000 23.970400 36.770302 23.970400 # 1
446 2 1.050000 25.000000 16.466700 16.466700 # 2
447 2 1.050000 25.000000 16.466700 25.000000 # 2
448 2 1.050000 25.000000 16.466700 33.533302 # 2
449 2 1.050000 25.000000 20.733400 20.733400 # 2
450 2 1.050000 25.000000 20.733400 29.266600 # 2
451 2 1.050000 25.000000 25.000000 16.466700 # 2
452 2 1.050000 25.000000 25.000000 25.000000 # 2
453 2 1.050000 25.000000 25.000000 33.533302 # 2
454 2 1.050000 25.000000 29.266600 20.733400 # 2
455 2 1.050000 25.000000 29.266600 29.266600 # 2
456 2 1.050000 25.000000 33.533302 16.466700 # 2
457 2 1.050000 25.000000 33.533302 25.000000 # 2
458 2 1.050000 25.000000 33.533302 33.533302 # 2
459 1 -1.050000 26.029499 13.229600 23.970400 # 1
460 1 -1.050000 26.029499 15.437199 21.763000 # 1
461 1 -1.050000 26.029499 15.437199 30.296101 # 1
462 1 -1.050000 26.029499 17.496201 19.703701 # 1
463 1 -1.050000 26.029499 17.496201 28.237000 # 1
464 1 -1.050000 26.029499 19.703701 17.496201 # 1
465 1 -1.050000 26.029499 19.703701 26.029499 # 1
466 1 -1.050000 26.029499 19.703701 34.562801 # 1
467 1 -1.050000 26.029499 21.763000 15.437199 # 1
468 1 -1.050000 26.029499 21.763000 23.970400 # 1
469 1 -1.050000 26.029499 21.763000 32.503700 # 1
470 1 -1.050000 26.029499 23.970400 13.229600 # 1
471 1 -1.050000 26.029499 23.970400 21.763000 # 1
472 1 -1.050000 26.029499 23.970400 30.296101 # 1
473 1 -1.050000 26.029499 26.029499 19.703701 # 1
474 1 -1.050000 26.029499 26.029499 28.237000 # 1
475 1 -1.050000 26.029499 26.029499 36.770302 # 1
476 1 -1.050000 26.029499 28.237000 17.496201 # 1
477 1 -1.050000 26.029499 28.237000 26.029499 # 1
478 1 -1.050000 26.029499 28.237000 34.562801 # 1
479 1 -1.050000 26.029499 30.296101 15.437199 # 1
480 1 -1.050000 26.029499 30.296101 23.970400 # 1
481 1 -1.050000 26.029499 30.296101 32.503700 # 1
482 1 -1.050000 26.029499 32.503700 21.763000 # 1
483 1 -1.050000 26.029499 32.503700 30.296101 # 1
484 1 -1.050000 26.029499 34.562801 19.703701 # 1
485 1 -1.050000 26.029499 34.562801 28.237000 # 1
486 1 -1.050000 26.029499 36.770302 26.029499 # 1
487 2 1.050000 26.066601 13.266700 26.066601 # 2
488 2 1.050000 26.066601 15.400000 19.666700 # 2
489 2 1.050000 26.066601 15.400000 28.200001 # 2
490 2 1.050000 26.066601 17.533400 21.799999 # 2
491 2 1.050000 26.066601 17.533400 30.333298 # 2
492 2 1.050000 26.066601 19.666700 15.400000 # 2
493 2 1.050000 26.066601 19.666700 23.933399 # 2
494 2 1.050000 26.066601 19.666700 32.466599 # 2
495 2 1.050000 26.066601 21.799999 17.533400 # 2
496 2 1.050000 26.066601 21.799999 26.066601 # 2
497 2 1.050000 26.066601 21.799999 34.599998 # 2
498 2 1.050000 26.066601 23.933399 19.666700 # 2
499 2 1.050000 26.066601 23.933399 28.200001 # 2
500 2 1.050000 26.066601 23.933399 36.733299 # 2
501 2 1.050000 26.066601 26.066601 13.266700 # 2
502 2 1.050000 26.066601 26.066601 21.799999 # 2
503 2 1.050000 26.066601 26.066601 30.333298 # 2
504 2 1.050000 26.066601 28.200001 15.400000 # 2
505 2 1.050000 26.066601 28.200001 23.933399 # 2
506 2 1.050000 26.066601 28.200001 32.466599 # 2
507 2 1.050000 26.066601 30.333298 17.533400 # 2
508 2 1.050000 26.066601 30.333298 26.066601 # 2
509 2 1.050000 26.066601 30.333298 34.599998 # 2
510 2 1.050000 26.066601 32.466599 19.666700 # 2
511 2 1.050000 26.066601 32.466599 28.200001 # 2
512 2 1.050000 26.066601 34.599998 21.799999 # 2
513 2 1.050000 26.066601 34.599998 30.333298 # 2
514 2 1.050000 26.066601 36.733299 23.933399 # 2
515 1 -1.050000 26.103701 13.303800 19.629601 # 1
516 1 -1.050000 26.103701 13.303800 28.162800 # 1
517 1 -1.050000 26.103701 15.362900 17.570400 # 1
518 1 -1.050000 26.103701 15.362900 26.103701 # 1
519 1 -1.050000 26.103701 17.570400 15.362900 # 1
520 1 -1.050000 26.103701 17.570400 23.896299 # 1
521 1 -1.050000 26.103701 17.570400 32.429501 # 1
522 1 -1.050000 26.103701 19.629601 13.303800 # 1
523 1 -1.050000 26.103701 19.629601 21.837101 # 1
524 1 -1.050000 26.103701 19.629601 30.370300 # 1
525 1 -1.050000 26.103701 21.837101 19.629601 # 1
526 1 -1.050000 26.103701 21.837101 28.162800 # 1
527 1 -1.050000 26.103701 21.837101 36.696201 # 1
528 1 -1.050000 26.103701 23.896299 17.570400 # 1
529 1 -1.050000 26.103701 23.896299 26.103701 # 1
530 1 -1.050000 26.103701 23.896299 34.637001 # 1
531 1 -1.050000 26.103701 26.103701 15.362900 # 1
532 1 -1.050000 26.103701 26.103701 23.896299 # 1
533 1 -1.050000 26.103701 26.103701 32.429501 # 1
534 1 -1.050000 26.103701 28.162800 13.303800 # 1
535 1 -1.050000 26.103701 28.162800 21.837101 # 1
536 1 -1.050000 26.103701 28.162800 30.370300 # 1
537 1 -1.050000 26.103701 30.370300 19.629601 # 1
538 1 -1.050000 26.103701 30.370300 28.162800 # 1
539 1 -1.050000 26.103701 30.370300 36.696201 # 1
540 1 -1.050000 26.103701 32.429501 17.570400 # 1
541 1 -1.050000 26.103701 32.429501 26.103701 # 1
542 1 -1.050000 26.103701 32.429501 34.637001 # 1
543 1 -1.050000 26.103701 34.637001 23.896299 # 1
544 1 -1.050000 26.103701 34.637001 32.429501 # 1
545 1 -1.050000 26.103701 36.696201 21.837101 # 1
546 1 -1.050000 26.103701 36.696201 30.370300 # 1
547 2 1.050000 27.133301 14.333401 22.866699 # 2
548 2 1.050000 27.133301 14.333401 31.400002 # 2
549 2 1.050000 27.133301 18.600000 18.600000 # 2
550 2 1.050000 27.133301 18.600000 27.133301 # 2
551 2 1.050000 27.133301 18.600000 35.666599 # 2
552 2 1.050000 27.133301 22.866699 14.333401 # 2
553 2 1.050000 27.133301 22.866699 22.866699 # 2
554 2 1.050000 27.133301 22.866699 31.400002 # 2
555 2 1.050000 27.133301 27.133301 18.600000 # 2
556 2 1.050000 27.133301 27.133301 27.133301 # 2
557 2 1.050000 27.133301 27.133301 35.666599 # 2
558 2 1.050000 27.133301 31.400002 14.333401 # 2
559 2 1.050000 27.133301 31.400002 22.866699 # 2
560 2 1.050000 27.133301 31.400002 31.400002 # 2
561 2 1.050000 27.133301 35.666599 18.600000 # 2
562 2 1.050000 27.133301 35.666599 27.133301 # 2
563 1 -1.050000 28.162800 13.303800 26.103701 # 1
564 1 -1.050000 28.162800 15.362900 19.629601 # 1
565 1 -1.050000 28.162800 15.362900 28.162800 # 1
566 1 -1.050000 28.162800 17.570400 21.837101 # 1
567 1 -1.050000 28.162800 17.570400 30.370300 # 1
568 1 -1.050000 28.162800 19.629601 15.362900 # 1
569 1 -1.050000 28.162800 19.629601 23.896299 # 1
570 1 -1.050000 28.162800 19.629601 32.429501 # 1
571 1 -1.050000 28.162800 21.837101 17.570400 # 1
572 1 -1.050000 28.162800 21.837101 26.103701 # 1
573 1 -1.050000 28.162800 21.837101 34.637001 # 1
574 1 -1.050000 28.162800 23.896299 19.629601 # 1
575 1 -1.050000 28.162800 23.896299 28.162800 # 1
576 1 -1.050000 28.162800 23.896299 36.696201 # 1
577 1 -1.050000 28.162800 26.103701 13.303800 # 1
578 1 -1.050000 28.162800 26.103701 21.837101 # 1
579 1 -1.050000 28.162800 26.103701 30.370300 # 1
580 1 -1.050000 28.162800 28.162800 15.362900 # 1
581 1 -1.050000 28.162800 28.162800 23.896299 # 1
582 1 -1.050000 28.162800 28.162800 32.429501 # 1
583 1 -1.050000 28.162800 30.370300 17.570400 # 1
584 1 -1.050000 28.162800 30.370300 26.103701 # 1
585 1 -1.050000 28.162800 30.370300 34.637001 # 1
586 1 -1.050000 28.162800 32.429501 19.629601 # 1
587 1 -1.050000 28.162800 32.429501 28.162800 # 1
588 1 -1.050000 28.162800 34.637001 21.837101 # 1
589 1 -1.050000 28.162800 34.637001 30.370300 # 1
590 1 -1.050000 28.162800 36.696201 23.896299 # 1
591 2 1.050000 28.200001 13.266700 19.666700 # 2
592 2 1.050000 28.200001 13.266700 28.200001 # 2
593 2 1.050000 28.200001 15.400000 17.533400 # 2
594 2 1.050000 28.200001 15.400000 26.066601 # 2
595 2 1.050000 28.200001 17.533400 15.400000 # 2
596 2 1.050000 28.200001 17.533400 23.933399 # 2
597 2 1.050000 28.200001 17.533400 32.466599 # 2
598 2 1.050000 28.200001 19.666700 13.266700 # 2
599 2 1.050000 28.200001 19.666700 21.799999 # 2