LAMMPS data file via write_data, version 17 Feb 2022, timestep = 10000

1466 atoms
3 atom types

-2.220001 99.540001 xlo xhi
-2.220001 99.540001 ylo yhi
-2.220001 99.540001 zlo zhi

Masses

1 55.845
2 55.845
3 15.9994

Pair Coeffs # lj/cut/coul/cut

1 9.0298e-07 4.9062
2 9.0298e-07 4.9062
3 0.1554 3.16554

Atoms # full

1 0 2 1.575 38.096195113275265 38.077521214421985 37.99407951796493 0 0 0
2 0 3 -1.05 39.18128670641604 45.40964658910693 45.400746086799195 0 0 0
3 0 3 -1.05 45.42386815649986 39.25652634071008 45.38844438654176 0 0 0
4 0 3 -1.05 45.3816445159359 45.449919063838536 39.03788247767345 0 0 0
5 0 3 -1.05 39.40305448677828 39.41900444640697 39.19568942553725 0 0 0
6 0 2 1.575 38.03977456071979 38.11768401379845 46.59041564101961 0 0 0
7 0 3 -1.05 45.40207161740593 45.45221540519615 47.71701601886539 0 0 0
8 0 3 -1.05 39.31992604879603 39.26176530101976 47.661779998449425 0 0 0
9 0 3 -1.05 39.301865895521686 45.41646967975327 37.1726208900039 0 0 0
10 0 3 -1.05 45.48027063854925 39.219487678702365 37.25323597878425 0 0 0
11 0 2 1.575 38.028650579263235 46.6380278692426 38.050060420249125 0 0 0
12 0 3 -1.05 45.3788507139352 47.70473595531397 45.43416978246128 0 0 0
13 0 3 -1.05 39.32067600316543 47.762190972563694 39.30820516022123 0 0 0
14 0 2 1.575 37.3050335896478 45.736829821573636 45.753624962814946 0 0 0
15 0 3 -1.05 39.32445834555719 47.88277882252068 47.78182172170722 0 0 0
16 0 3 -1.05 45.444731961536284 47.68608934764339 36.9868734094101 0 0 0
17 0 3 -1.05 39.21835543255872 37.19978203220412 45.28862276288948 0 0 0
18 0 3 -1.05 45.38070138680592 37.23024462781023 39.38045754600865 0 0 0
19 0 3 -1.05 45.501962211108456 37.00385082566841 47.68870750159869 0 0 0
20 0 3 -1.05 39.45046625048429 37.069836199847785 37.21030270770111 0 0 0
21 0 2 1.575 46.64172209137348 37.9695969130396 38.16161403280103 0 0 0
22 0 3 -1.05 47.693613107092084 45.46602359389256 45.36345997210286 0 0 0
23 0 3 -1.05 47.68901038929963 39.31550388566261 39.33836916184263 0 0 0
24 0 2 1.575 45.75598402341177 37.287464260810715 45.74713109663355 0 0 0
25 0 3 -1.05 47.62331985960831 39.339299168741405 47.81011740321242 0 0 0
26 0 3 -1.05 47.59049218121347 45.382828687561606 36.95855969474779 0 0 0
27 0 2 1.575 45.7665688703429 45.706274953802485 37.22414874448566 0 0 0
28 0 3 -1.05 47.6852270474106 47.82460559388879 39.37190852329984 0 0 0
29 0 2 1.575 46.551792004449396 46.53872494912207 46.47685342116793 0 0 0
30 0 3 -1.05 47.66852317528628 47.700295657255445 47.733709850138084 0 0 0
31 0 3 -1.05 47.63623225138602 37.06324685005563 45.360233036773465 0 0 0
32 0 3 -1.05 47.97474822475108 37.014003571833946 37.11650210405964 0 0 0
33 0 3 -1.05 37.207894830189574 39.401931418160295 45.447321214336036 0 0 0
34 0 3 -1.05 37.201544232488004 45.4224601123763 39.461963246992205 0 0 0
35 0 3 -1.05 36.994703087134944 45.398330040594786 47.57148716613705 0 0 0
36 0 3 -1.05 37.05591212916465 39.48714494242012 37.209236839389895 0 0 0
37 0 3 -1.05 36.983541349512784 47.72699024362787 45.41242661385007 0 0 0
38 0 3 -1.05 37.077675855488394 47.90889385916436 37.05861071909084 0 0 0
39 0 3 -1.05 37.125642812487804 37.205748883068516 39.32857513013291 0 0 0
40 0 3 -1.05 37.02557190822829 37.07371761231789 47.850808260635276 0 0 0
41 0 2 1.575 40.25357371426847 40.31936609916427 44.38687468353409 0 0 0
42 0 1 1.05 39.26159269287425 39.26289025917261 41.252915407929024 0 0 0
43 0 2 1.575 37.196225753985566 39.25538812314302 43.441925880955125 0 0 0
44 0 2 1.575 39.1686076438137 37.23645418074746 43.42987408021829 0 0 0
45 0 2 1.575 37.25805426696516 37.41536884564477 41.21281075697315 0 0 0
46 0 3 -1.05 39.12613397380014 39.19069548544591 43.29842522193854 0 0 0
47 0 3 -1.05 39.21118449475415 37.24605862566397 41.44233363144722 0 0 0
48 0 3 -1.05 37.10137273858137 37.22252752772704 43.090792708516126 0 0 0
49 0 3 -1.05 37.0811129610413 39.3317632766065 41.426059339602524 0 0 0
60 0 2 1.575 39.07736168405182 47.65774871185922 41.24878374560093 0 0 0
61 0 2 1.575 37.129064281076495 47.66000670219939 43.46903475667008 0 0 0
62 0 2 1.575 39.18535086996928 45.47650529444388 43.42228888929959 0 0 0
63 0 2 1.575 37.1186275977788 45.40001672207544 41.297104802893045 0 0 0
64 0 3 -1.05 39.24585291795933 47.53833836380396 43.387185574563524 0 0 0
65 0 3 -1.05 39.2214567315895 45.57550294668219 41.46701435341068 0 0 0
66 0 3 -1.05 37.261445959548595 45.720880040284676 43.58155565762238 0 0 0
67 0 3 -1.05 37.13074362195247 47.31999948499292 41.69636475135335 0 0 0
78 0 2 1.575 47.6860926050621 39.05382930910839 41.29661094124175 0 0 0
79 0 1 1.05 45.49556346355504 39.144845900707864 43.417513991868226 0 0 0
80 0 2 1.575 47.67765502552951 37.07943401963375 43.44323010683822 0 0 0
81 0 2 1.575 45.40252763933023 37.09107896100461 41.375808510509906 0 0 0
82 0 3 -1.05 47.54406973307238 39.230789358669725 43.24895102153542 0 0 0
83 0 3 -1.05 47.31671398115092 37.236156891567425 41.55474503413587 0 0 0
84 0 3 -1.05 45.67258902482857 37.21450999882746 43.52887031100969 0 0 0
85 0 3 -1.05 45.52965199759892 39.2696694402037 41.442688761755875 0 0 0
96 0 2 1.575 47.65518128936639 47.645108321747934 41.312967597374104 0 0 0
97 0 2 1.575 45.51155167241808 47.61422292852331 43.377385948200796 0 0 0
98 0 2 1.575 47.68824291319774 45.52434085825202 43.404035367201416 0 0 0
99 0 2 1.575 45.55262300387154 45.540524930752376 41.302473272412115 0 0 0
100 0 3 -1.05 47.54753412345232 47.555343926565584 43.41780243808864 0 0 0
101 0 3 -1.05 47.569431757210005 45.58845385960604 41.258784984042464 0 0 0
102 0 3 -1.05 45.52318028106526 45.468871762547415 43.480480996011785 0 0 0
103 0 3 -1.05 45.58502279746358 47.49905330971395 41.34500755410877 0 0 0
113 0 2 1.575 40.26137080495453 44.48031060749774 40.29477593212154 0 0 0
114 0 2 1.575 39.292305818605804 41.29973874255157 39.196843437296785 0 0 0
115 0 2 1.575 37.18995436693983 43.495768135679825 39.248144866000466 0 0 0
116 0 2 1.575 37.19542676934465 41.292056522320024 37.36341598783194 0 0 0
117 0 1 1.05 39.17920621239209 43.48498224840832 37.1806065031181 0 0 0
118 0 3 -1.05 37.30112870702674 41.56346717028365 39.309009451777044 0 0 0
119 0 3 -1.05 37.20443177993281 43.212367559110255 37.32462113722742 0 0 0
120 0 3 -1.05 39.203616806015226 43.28705858710306 39.20632927905384 0 0 0
121 0 3 -1.05 39.21206365412498 41.5807302935024 37.31242455736447 0 0 0
123 0 2 1.575 39.18483670397529 41.213956193236164 47.59825079361519 0 0 0
124 0 1 1.05 37.18974105783943 43.44954085516538 47.61301157848718 0 0 0
125 0 2 1.575 37.14541938850721 41.31557840399289 45.33228078104187 0 0 0
126 0 2 1.575 39.19688757633028 43.422653203086924 45.53993051623191 0 0 0
127 0 3 -1.05 37.088804551104865 41.620199463446276 47.25339974109355 0 0 0
128 0 3 -1.05 37.19570666677431 43.55429056484646 45.622054937900565 0 0 0
129 0 3 -1.05 39.22426504587049 43.37489824312179 47.47634980839687 0 0 0
130 0 3 -1.05 39.18727990334487 41.520681696590096 45.5817041702559 0 0 0
150 0 2 1.575 47.667909525373396 41.21430967987351 39.134905312770016 0 0 0
151 0 1 1.05 45.47970815659785 43.38724654813142 39.20353376852808 0 0 0
152 0 2 1.575 45.517690966297515 41.15117713323353 37.17087771047357 0 0 0
153 0 2 1.575 47.66088800897585 43.42421909798324 37.11964083873014 0 0 0
154 0 3 -1.05 45.4576962356066 41.37618153469043 39.243661179691884 0 0 0
155 0 3 -1.05 45.689712612359585 43.54086212031699 37.21306910333339 0 0 0
156 0 3 -1.05 47.56138006544926 43.37889646805345 39.28973423132674 0 0 0
157 0 3 -1.05 47.37780984208957 41.44822456581425 37.173153918185825 0 0 0
159 0 2 1.575 47.68582512935633 41.17852600050639 47.641044363750545 0 0 0
160 0 2 1.575 45.51854532810018 43.42253565889391 47.59427288422897 0 0 0
161 0 2 1.575 45.51610104071684 41.271803121105584 45.54724897054869 0 0 0
162 0 1 1.05 47.643720312073626 43.42455526454904 45.52326055681724 0 0 0
163 0 3 -1.05 45.50330717097766 41.44028322784782 47.43052606905281 0 0 0
164 0 3 -1.05 45.636192157701025 43.49972082977108 45.69480694329529 0 0 0
165 0 3 -1.05 47.345813055144305 43.455789693171326 47.50261638826568 0 0 0
166 0 3 -1.05 47.61277790115285 41.40707146206404 45.591994630583564 0 0 0
185 0 2 1.575 37.38890883768609 41.577871590626586 41.53075757858679 0 0 0
186 0 3 -1.05 45.32783888252593 41.374928505280906 43.5292114116156 0 0 0
187 0 3 -1.05 39.39771699215605 43.71736301667304 43.552894472054305 0 0 0
188 0 3 -1.05 39.32353918385257 41.27285893066049 41.11900551307689 0 0 0
189 0 3 -1.05 45.46937098144862 43.526917688414756 41.273308426252925 0 0 0
205 0 2 1.575 46.64761673901045 42.302544994634154 42.34401283870598 0 0 0
206 0 3 -1.05 47.78109473283973 43.661636061340396 43.434669579793244 0 0 0
207 0 3 -1.05 47.76368828831959 41.11896699901605 41.18642703172534 0 0 0
217 0 3 -1.05 36.97922821371029 41.26310648457281 43.43449581780673 0 0 0
218 0 3 -1.05 37.00593760751189 43.56575119751425 41.14348551045078 0 0 0
225 0 2 1.575 44.475910319493686 40.27472022054348 40.34835436243317 0 0 0
226 0 2 1.575 41.24968819957212 37.17108328038456 37.419834184170824 0 0 0
227 0 2 1.575 41.31978645377427 39.250284222821506 39.22085814529107 0 0 0
228 0 2 1.575 43.55241277064354 37.14690105821579 39.29897297206117 0 0 0
229 0 2 1.575 43.45048555767464 39.11552876312553 37.20512848739745 0 0 0
230 0 3 -1.05 43.18146309104089 37.131372366632895 37.338424813982996 0 0 0
231 0 3 -1.05 43.29508427962961 39.284480291092414 39.22242474980238 0 0 0
232 0 3 -1.05 41.61028629063507 39.12196627026839 37.31314957596896 0 0 0
233 0 3 -1.05 41.57820297070484 37.3460205398633 39.41639865064267 0 0 0
235 0 2 1.575 41.20548907141628 37.1314781371145 45.35873933899159 0 0 0
236 0 2 1.575 41.235118538686855 39.042897831659275 47.54800771372447 0 0 0
237 0 2 1.575 43.463598459715726 37.130751018422835 47.58666986107621 0 0 0
238 0 2 1.575 43.447825244355826 39.116731444791014 45.4672691563314 0 0 0
239 0 3 -1.05 43.69181694774796 37.180232992611266 45.61081872347575 0 0 0
240 0 3 -1.05 43.3346929385216 39.37098206197468 47.41356250334881 0 0 0
241 0 3 -1.05 41.41323563923821 39.19114505353723 45.61945338682795 0 0 0
242 0 3 -1.05 41.525540502138966 37.080550945606674 47.32266586310204 0 0 0
244 0 2 1.575 41.17244157126829 45.51016731926871 37.132826360700655 0 0 0
245 0 2 1.575 41.2624324586936 47.64250520092946 39.1188243316582 0 0 0
246 0 2 1.575 43.349054018277464 45.48736528456802 39.21991517523792 0 0 0
247 0 2 1.575 43.37184175988629 47.57717314162712 37.132053013068315 0 0 0
248 0 3 -1.05 43.55598854068629 45.65255078987819 37.264858414864364 0 0 0
249 0 3 -1.05 43.4180705359963 47.4919195685688 39.356520308759016 0 0 0
250 0 3 -1.05 41.52728078307119 47.32048758570661 37.205872700765674 0 0 0
251 0 3 -1.05 41.4570812895212 45.536921100184536 39.27587259681086 0 0 0
253 0 1 1.05 41.302270370428126 45.5463403604019 45.5617604699752 0 0 0
254 0 2 1.575 41.314359542820235 47.690454291457094 47.65218261377557 0 0 0
255 0 2 1.575 43.349927161898414 45.512047056402665 47.62290063486945 0 0 0
256 0 1 1.05 43.369483027856 47.592993689936584 45.45711210868557 0 0 0
257 0 3 -1.05 43.43393905677919 45.60831813685866 45.602062267922356 0 0 0
258 0 3 -1.05 43.40122118168762 47.416949944065244 47.512464477177424 0 0 0
259 0 3 -1.05 41.4539900926048 47.59246472658549 45.51823869364088 0 0 0
260 0 3 -1.05 41.423091232202026 45.675448489032355 47.49831351613176 0 0 0
297 0 1 1.05 41.6336701637135 37.373921476323964 41.556720212747486 0 0 0
298 0 3 -1.05 41.353013299730776 39.36659942073038 41.195698125166906 0 0 0
299 0 3 -1.05 43.61506110533599 45.41489451045041 41.24322412894105 0 0 0
300 0 3 -1.05 43.65994943556755 39.458992712406264 43.514703306614976 0 0 0
301 0 3 -1.05 41.354718559210156 45.4137538207428 43.59765526575702 0 0 0
307 0 2 1.575 42.25656519268114 46.623530664185694 42.320273192545336 0 0 0
308 0 3 -1.05 41.24256557879017 47.73357272401742 41.21365859459137 0 0 0
309 0 3 -1.05 43.49242907629788 47.83209702774928 43.45771974378534 0 0 0
313 0 3 -1.05 43.52712170324215 37.03691371908689 41.27567757507413 0 0 0
314 0 3 -1.05 41.08206875352874 36.8966848672148 43.38501923340529 0 0 0
337 0 2 1.575 42.25378053697 42.293026954713305 37.926548831491544 0 0 0
338 0 3 -1.05 43.421751348448275 43.378483607266816 39.22053650748353 0 0 0
339 0 3 -1.05 41.38035007112377 41.340588844824254 39.2745415564608 0 0 0
340 0 3 -1.05 41.42590382721528 43.55455210373976 45.47747642198586 0 0 0
341 0 3 -1.05 43.53547509574181 41.38915940277837 45.39961216154916 0 0 0
342 0 2 1.575 42.311137560602546 42.335265516869846 46.572562224505155 0 0 0
343 0 3 -1.05 43.475663458923485 43.53242823898136 47.57775227112022 0 0 0
344 0 3 -1.05 41.304012335132754 41.17032081849709 47.57843850135426 0 0 0
345 0 3 -1.05 41.17946079484002 43.62570784957397 37.131680707251874 0 0 0
346 0 3 -1.05 43.674693114152056 41.183594904599445 37.16306177686775 0 0 0
377 0 1 1.05 44.36174812771832 44.43677892053942 44.497042540971 0 0 0
378 0 2 1.575 43.46267805911483 43.42112286155321 41.295104566875814 0 0 0
379 0 2 1.575 43.40744869674756 41.33150915504671 43.40510012138922 0 0 0
380 0 2 1.575 41.33992807112455 43.41730477173704 43.45370034732985 0 0 0
381 0 1 1.05 41.331050962866335 41.276461871421155 41.37882470956661 0 0 0
382 0 3 -1.05 41.53145678168604 43.3515287170237 41.32476580431009 0 0 0
383 0 3 -1.05 41.56453451687079 41.471865367453 43.275692838646826 0 0 0
384 0 3 -1.05 43.40126568348923 41.5084266484647 41.30319026001826 0 0 0
385 0 3 -1.05 43.45510531792823 43.37982330148116 43.328705968448475 0 0 0
149 0 2 1.575 48.659877288204285 44.47903995142004 40.24274113974677 0 0 0
122 0 2 1.575 40.117287103727556 44.55049173192264 48.59769154843576 0 0 0
234 0 2 1.575 44.490712410393215 40.16061689884701 48.53871172779927 0 0 0
158 0 1 1.05 48.63380344804292 44.44180342607804 48.61589577022334 0 0 0
59 0 2 1.575 40.230560760876315 48.64637889103769 44.4741623627417 0 0 0
243 0 2 1.575 44.44695537666208 48.6414544441742 40.24688983388701 0 0 0
50 0 2 1.575 40.23133371436773 40.179826638035486 52.85621999539743 0 0 0
51 0 2 1.575 39.193258864500365 39.155448321160904 49.6943014668204 0 0 0
52 0 2 1.575 37.21071562689151 39.13522895707095 51.86068539608001 0 0 0
53 0 2 1.575 39.252165371324764 37.165897100160294 51.91590212616043 0 0 0
54 0 2 1.575 37.27551812200569 37.16154501129587 49.693008909312205 0 0 0
55 0 3 -1.05 39.20593329166545 39.25546582585743 51.62608686315851 0 0 0
56 0 3 -1.05 39.15911981561149 37.280839529390576 49.846268663189676 0 0 0
57 0 3 -1.05 37.08473944065477 37.23711523668957 51.56763598318011 0 0 0
58 0 3 -1.05 37.26880926850149 39.16714926689073 49.851104163250035 0 0 0
69 0 2 1.575 39.00747863355188 47.64796203979555 49.668315967667105 0 0 0
70 0 1 1.05 37.08975286432701 47.5241910287289 51.94255240806632 0 0 0
71 0 2 1.575 39.05850478775457 45.43362562954534 51.718417477293194 0 0 0
72 0 2 1.575 37.09230554622833 45.553306525891564 49.591493638486156 0 0 0
73 0 3 -1.05 39.219169351652965 47.5450319334741 51.75556475984577 0 0 0
74 0 3 -1.05 39.14394532115746 45.683532679859645 49.698609281395406 0 0 0
75 0 3 -1.05 37.229212217840434 45.66661507583178 51.66469228332741 0 0 0
76 0 3 -1.05 37.155175323216525 47.525434689992984 49.94749465916428 0 0 0
87 0 1 1.05 47.49842782497325 39.37378766912005 49.82968449506118 0 0 0
88 0 2 1.575 45.42623775814272 38.993690831213215 51.90681645670021 0 0 0
89 0 2 1.575 47.69780564538414 37.12459612389556 51.81802378178282 0 0 0
90 0 2 1.575 45.52857934076785 37.081087149184505 49.59287005173066 0 0 0
91 0 3 -1.05 47.43574060356661 39.204974557882466 51.78228718169902 0 0 0
92 0 3 -1.05 47.56316161947313 37.24746628321248 49.78983749457998 0 0 0
93 0 3 -1.05 45.80374832393107 37.16103686684352 51.42094515921974 0 0 0
94 0 3 -1.05 45.5665164866974 39.255673521669785 49.83743616312347 0 0 0
105 0 2 1.575 47.59703958351566 47.583814845204316 49.70439763759645 0 0 0
106 0 1 1.05 45.46721917714528 47.592771180563766 51.81280790847628 0 0 0
107 0 2 1.575 47.54355730578103 45.45987521127865 51.8312785885238 0 0 0
108 0 2 1.575 45.49885659600711 45.45056921512957 49.642351724649494 0 0 0
109 0 3 -1.05 47.67332102827514 47.80032596815898 51.68160394187486 0 0 0
110 0 3 -1.05 47.455297058591434 45.694717097559476 49.63117492579048 0 0 0
111 0 3 -1.05 45.56886238604177 45.526540925807694 51.633262722095644 0 0 0
112 0 3 -1.05 45.72090420306039 47.59540304207337 49.66006591122345 0 0 0
664 0 3 -1.05 36.922059629344325 41.14592528773205 60.24777611060106 0 0 0
190 0 2 1.575 37.951773340797544 42.307708221714094 50.741309947161575 0 0 0
191 0 3 -1.05 45.32711836972036 41.37673589028162 51.843212851328765 0 0 0
192 0 3 -1.05 39.299580905134746 43.42510052282522 51.786540110754366 0 0 0
193 0 3 -1.05 39.22094367095619 41.23425911017842 49.60647375933174 0 0 0
194 0 3 -1.05 45.43337627960555 43.5016677491453 49.549121442734176 0 0 0
208 0 2 1.575 46.515216628409725 42.39581383523139 50.78850639107704 0 0 0
209 0 3 -1.05 47.58415341335201 43.546003704630046 51.86153858430281 0 0 0
210 0 3 -1.05 47.46250718198671 41.345124990512545 49.61785535939394 0 0 0
219 0 3 -1.05 37.02547138848316 41.08095887269604 51.859498055313175 0 0 0
220 0 3 -1.05 37.24441205291595 43.54360727274816 49.61797149133339 0 0 0
663 0 3 -1.05 37.083412596059006 43.5044167035159 57.86534395419119 0 0 0
302 0 2 1.575 42.261012741837995 37.986598275855044 50.7509831105347 0 0 0
303 0 3 -1.05 41.34608094065811 39.16486896932025 49.567257434291676 0 0 0
304 0 3 -1.05 43.532300698682064 45.52021257820281 49.57999876391328 0 0 0
305 0 3 -1.05 43.41242524453353 39.23538688613809 51.86076929435277 0 0 0
306 0 3 -1.05 41.27205013334092 45.3579601180783 51.86239116306258 0 0 0
310 0 2 1.575 42.335261062471 46.52977436855538 50.740023852313755 0 0 0
311 0 3 -1.05 41.46120442217353 47.74905653372282 49.682721609812255 0 0 0
312 0 3 -1.05 43.44473190629029 47.73483481185169 51.769967021570544 0 0 0
315 0 3 -1.05 43.63821893495471 37.43772261468009 49.593523180163785 0 0 0
316 0 3 -1.05 41.22458248430287 37.13961364151334 52.11439623608299 0 0 0
386 0 2 1.575 44.43969046095413 44.47685768494087 53.0119509980526 0 0 0
387 0 2 1.575 43.383881325594125 43.42679143774323 49.694957159732084 0 0 0
388 0 2 1.575 43.39656855208376 41.21602164715894 51.848138566148805 0 0 0
389 0 2 1.575 41.2312439356899 43.35248958596371 51.78189886102507 0 0 0
390 0 2 1.575 41.22523107199721 41.232682154979365 49.69227161454536 0 0 0
391 0 3 -1.05 41.50292439397023 43.431680174275016 49.69064346895376 0 0 0
392 0 3 -1.05 41.46619463424544 41.41518694891758 51.636635987087054 0 0 0
393 0 3 -1.05 43.260760654579194 41.4839775916001 49.7403247936741 0 0 0
394 0 3 -1.05 43.318900453550846 43.349027055421395 51.54059797006478 0 0 0
449 0 3 -1.05 39.38251832995971 45.276861641158156 53.751361835571615 0 0 0
450 0 3 -1.05 45.30833385253968 39.21872055755777 53.70685675291782 0 0 0
451 0 2 1.575 38.004229397577085 38.049697261164646 55.038619930006554 0 0 0
452 0 3 -1.05 41.12602157156794 41.27402814058246 56.110124206048205 0 0 0
453 0 3 -1.05 43.38491767183949 43.578748225894664 55.836003129396346 0 0 0
454 0 3 -1.05 45.283342868746 45.494372824369236 56.086084672058426 0 0 0
455 0 3 -1.05 39.20263379989013 39.323020283749464 56.11363476728198 0 0 0
456 0 2 1.575 42.24964779176309 42.27884467567626 55.01422204490753 0 0 0
457 0 3 -1.05 43.425864309462284 41.184172213836455 53.773753663690364 0 0 0
458 0 3 -1.05 41.335050507301936 43.457977093885994 53.6970821153188 0 0 0
459 0 3 -1.05 45.50805337342265 47.7754473557085 53.73751840664901 0 0 0
460 0 2 1.575 37.354430146769346 47.25923812818669 55.76377980325739 0 0 0
462 0 3 -1.05 39.35049151925489 47.71544295594688 55.9773068213422 0 0 0
465 0 3 -1.05 39.433012594787854 37.255616860789054 53.91061223920428 0 0 0
467 0 3 -1.05 45.1895919843536 37.10555395273032 56.15316025093909 0 0 0
469 0 3 -1.05 47.770091578070485 45.49273954043883 53.75168355455304 0 0 0
470 0 1 1.05 46.443917334115476 38.011761153290614 55.02543428663625 0 0 0
472 0 3 -1.05 47.74431153860277 39.35444935104211 56.001162613315515 0 0 0
475 0 2 1.575 46.566331608841224 46.52215332766226 55.00738572304669 0 0 0
476 0 3 -1.05 47.89825605094367 47.883963963233505 56.207880641816146 0 0 0
479 0 3 -1.05 47.59580743290752 37.232238390971 53.55654584183029 0 0 0
481 0 3 -1.05 37.177564905385765 39.28448664630433 53.820183441582536 0 0 0
482 0 3 -1.05 41.08244274601807 37.072969620737105 60.26079939783234 0 0 0
483 0 3 -1.05 36.840641841359634 45.50362063378795 56.04834112003901 0 0 0
484 0 3 -1.05 43.37861691176874 37.219430349814154 57.98392323240604 0 0 0
485 0 3 -1.05 36.93337355412488 47.74676380105517 53.85709474705903 0 0 0
487 0 3 -1.05 36.9924410501082 37.05212861569986 56.22309278266074 0 0 0
488 0 3 -1.05 43.48893548928641 47.781062618264656 60.03622106762766 0 0 0
490 0 2 1.575 39.12447001735127 39.21581284119609 58.137661851179864 0 0 0
491 0 2 1.575 37.135516942373044 39.304874371492154 60.08586107004137 0 0 0
492 0 2 1.575 39.222124607898664 37.22830068945918 60.085612469690126 0 0 0
493 0 2 1.575 37.15037036003375 37.22784705347111 58.02432728492922 0 0 0
494 0 3 -1.05 39.07088539872386 39.21051478840544 60.012278471229315 0 0 0
495 0 3 -1.05 39.01669085693625 37.28918489008853 58.1706183718639 0 0 0
496 0 3 -1.05 37.17855057679235 37.244411939133876 60.02329720959059 0 0 0
497 0 3 -1.05 37.22652424543791 39.1012245708527 58.19660829571622 0 0 0
503 0 3 -1.05 41.249077158020796 47.69378417504641 58.00561648239728 0 0 0
504 0 2 1.575 42.27144957406392 46.57346779242854 59.276046497314034 0 0 0
506 0 3 -1.05 40.97657758646258 45.478583036330456 60.17894918847925 0 0 0
508 0 2 1.575 39.219738760178224 47.65784355203922 58.07705743211151 0 0 0
509 0 2 1.575 37.08735957669519 47.69321181874071 59.826191502516984 0 0 0
510 0 2 1.575 39.1195698275343 45.43717371878122 60.10690963204723 0 0 0
511 0 1 1.05 37.13805374442703 45.30579877946676 58.07896781447289 0 0 0
512 0 3 -1.05 38.95201982306168 47.46659580333407 59.98063358158807 0 0 0
513 0 3 -1.05 39.03242428014617 45.64400247910343 57.95669010261047 0 0 0
514 0 3 -1.05 36.87842513580411 45.80392269107875 59.80949227010314 0 0 0
515 0 3 -1.05 37.19416012902753 47.406837767737876 57.73385475403446 0 0 0
517 0 3 -1.05 43.347281865265415 39.464056339100516 60.092738222456504 0 0 0
518 0 3 -1.05 43.35695716530818 45.552090717290326 57.991886618005104 0 0 0
519 0 3 -1.05 41.1205690768065 39.32725108610818 58.03481431863165 0 0 0
520 0 2 1.575 42.16272749963881 38.117308256026895 59.27579483006926 0 0 0
526 0 2 1.575 47.570812467541614 39.18013544797618 58.109879663806026 0 0 0
527 0 2 1.575 45.299657225259104 39.27877401125474 60.158825296400806 0 0 0
528 0 2 1.575 47.57932497011663 37.407462065159294 60.152315905964706 0 0 0
529 0 2 1.575 45.4072272685977 37.23151645800222 58.200198245999 0 0 0
530 0 3 -1.05 47.28155067582738 39.3381140055749 60.07272606026072 0 0 0
531 0 3 -1.05 47.355838767278776 37.3409143649594 58.19605413603747 0 0 0
532 0 3 -1.05 45.48837582590477 37.44982226886215 60.19195947229293 0 0 0
533 0 3 -1.05 45.561999577233465 39.22593533665494 58.12894377429645 0 0 0
544 0 1 1.05 47.60166032409623 47.579656374554 58.24116803680816 0 0 0
545 0 2 1.575 45.483923608063215 47.569632133711536 60.20005250926055 0 0 0
546 0 1 1.05 47.486045970598425 45.337154406790006 60.16866613168689 0 0 0
547 0 2 1.575 45.43959454780274 45.419408520295384 58.20569474199741 0 0 0
548 0 3 -1.05 47.38514131427065 47.50311630523005 60.1989541125974 0 0 0
549 0 3 -1.05 47.52727378595503 45.558133184009044 58.083208662810556 0 0 0
550 0 3 -1.05 45.60808300119433 45.70933353629388 60.04211323286122 0 0 0
551 0 3 -1.05 45.59126167567932 47.550484381326626 58.10602640117984 0 0 0
561 0 2 1.575 40.2057388093394 44.42573287949166 57.05286259173466 0 0 0
562 0 2 1.575 39.06499856776088 41.30146672732997 56.02836441382068 0 0 0
563 0 2 1.575 37.0258570086522 43.35183499695346 55.92195170324002 0 0 0
564 0 2 1.575 37.02735901847066 41.207319425075774 53.79601090299462 0 0 0
565 0 2 1.575 38.92384999055417 43.50438856741278 53.82757762390551 0 0 0
566 0 3 -1.05 37.20855519485396 41.49796208705382 55.8536348631504 0 0 0
567 0 3 -1.05 37.10218906080301 43.16634574839254 53.98980173440239 0 0 0
568 0 3 -1.05 39.100413916177125 43.32495109873573 55.96064871630085 0 0 0
569 0 3 -1.05 39.1702484706991 41.38343396588159 53.9735633709514 0 0 0
596 0 3 -1.05 41.39401479091971 45.74526198873088 55.8436982200479 0 0 0
598 0 2 1.575 47.45819885651322 41.21878729247697 56.06939291121876 0 0 0
599 0 2 1.575 45.432290794840924 43.38887313161846 56.034004859307636 0 0 0
600 0 2 1.575 45.49580752676618 41.18448858691053 53.9395364251736 0 0 0
601 0 2 1.575 47.519953785491616 43.35454279371346 53.92171769854021 0 0 0
602 0 3 -1.05 45.555433619812916 41.183079012734495 55.87174558562466 0 0 0
603 0 3 -1.05 45.64771117860115 43.371499765041605 53.92081269800996 0 0 0
604 0 3 -1.05 47.784923448796306 43.301956118976214 55.980195749670294 0 0 0
605 0 3 -1.05 47.505520051292436 41.42943593101076 53.93879886273554 0 0 0
606 0 3 -1.05 41.35816671627222 47.562538163318024 53.888429250055076 0 0 0
607 0 3 -1.05 43.25646939103305 47.671800260025 56.03789822752955 0 0 0
608 0 3 -1.05 43.246689775138094 43.25542836299431 60.138744859905714 0 0 0
609 0 3 -1.05 43.291942949695446 41.41796095381543 58.0864813770513 0 0 0
610 0 3 -1.05 41.35202056144482 41.348503243352404 60.014378904778795 0 0 0
611 0 3 -1.05 43.346300375807914 45.60940268050235 53.85487124657689 0 0 0
612 0 2 1.575 43.39169224896591 47.58587995647253 53.962815487642644 0 0 0
613 0 2 1.575 43.32419384179268 45.4912165698435 56.06168332918815 0 0 0
614 0 2 1.575 41.20464241294905 47.55735384132674 55.95673418152399 0 0 0
624 0 3 -1.05 41.29191869780796 43.31130989160702 57.98954818684849 0 0 0
625 0 2 1.575 41.21416612913469 41.26986103526678 58.19800188907196 0 0 0
626 0 2 1.575 41.17599897299404 43.42125880572875 60.174230487473956 0 0 0
627 0 2 1.575 43.37746016222673 41.366330573077256 60.19735115327277 0 0 0
628 0 2 1.575 43.41069436788408 43.46230195934815 58.32146365995263 0 0 0
629 0 2 1.575 41.30379028235893 45.439306515850966 53.8600642208147 0 0 0
633 0 2 1.575 37.98393180543823 42.18142436224657 59.21095917343369 0 0 0
634 0 3 -1.05 45.21658981598752 41.133612015900376 60.36595595632127 0 0 0
635 0 3 -1.05 39.11949292517259 43.60745405440625 59.95683567814694 0 0 0
636 0 3 -1.05 39.15239753523727 41.1650225211295 57.96180056133734 0 0 0
637 0 3 -1.05 45.31356718771936 43.6202556611499 58.02404855158726 0 0 0
641 0 3 -1.05 41.46739675416256 37.29535844546395 55.88144942866499 0 0 0
642 0 3 -1.05 41.43055405092194 39.28257748764542 53.98878615913899 0 0 0
648 0 3 -1.05 43.300951275473736 39.23848914372696 55.9785227139021 0 0 0
649 0 3 -1.05 43.228813494408755 37.320454801050545 54.13840622495465 0 0 0
650 0 2 1.575 43.40618124098759 39.1347716958473 53.94854411914314 0 0 0
651 0 2 1.575 43.38598092067605 37.22868440515499 56.130258785436105 0 0 0
652 0 1 1.05 41.19407263522899 39.14699877103813 56.09488389753396 0 0 0
653 0 2 1.575 47.105636862608 41.57827154372273 59.90574721059692 0 0 0
654 0 3 -1.05 47.848188288631874 43.467293439979024 60.30654955065824 0 0 0
655 0 3 -1.05 47.80660360167766 41.31079313217512 57.927692630770736 0 0 0
656 0 2 1.575 41.25127000032645 37.130906386790436 53.952008109022785 0 0 0
657 0 1 1.05 44.402181149181786 40.38294293178045 57.03633929465464 0 0 0
597 0 2 1.575 48.61272010689525 44.437123401161976 57.14719978728567 0 0 0
630 0 2 1.575 44.45981963053112 48.60047112254096 57.05614548516705 0 0 0
68 0 2 1.575 40.22879481241171 48.57549764454207 52.871469008258444 0 0 0
880 0 3 -1.05 37.217162532377294 57.94304403670736 43.50202677741546 0 0 0
131 0 2 1.575 40.23315158538136 52.94947380407237 40.297368205028754 0 0 0
132 0 2 1.575 39.16198544073205 49.75136742383323 39.18877107743342 0 0 0
133 0 2 1.575 37.17277886176371 51.98708577545233 39.21752028507132 0 0 0
134 0 2 1.575 37.228817392870845 49.759568967793534 37.22174296219558 0 0 0
135 0 2 1.575 39.18944686258406 51.95594868449064 37.23522751427211 0 0 0
136 0 3 -1.05 37.23813715680805 49.928061824621224 39.177719219627505 0 0 0
137 0 3 -1.05 37.244007014522914 51.67398108554414 37.228366610654646 0 0 0
138 0 3 -1.05 39.13737796537414 51.7668623812038 39.22250456941901 0 0 0
139 0 3 -1.05 39.12177394318321 49.90207767427557 37.236711864968946 0 0 0
141 0 1 1.05 38.99568803353342 49.71003569838141 47.66485150959079 0 0 0
142 0 1 1.05 37.01114386826691 51.91720794130667 47.565636336719564 0 0 0
143 0 2 1.575 36.966388128371335 49.68122664977797 45.52006552129014 0 0 0
144 0 2 1.575 39.08487514950556 51.79945299048584 45.44535715480902 0 0 0
145 0 3 -1.05 37.014917988706074 50.08303378152763 47.53801266531595 0 0 0
146 0 3 -1.05 37.18871864720618 51.70465747378537 45.60766589615847 0 0 0
147 0 3 -1.05 39.22483857601748 51.67981477793744 47.61322717466961 0 0 0
148 0 3 -1.05 39.23065639563194 49.66234311647513 45.59983446266029 0 0 0
168 0 2 1.575 47.650606970202446 49.71173026826984 39.11100610390158 0 0 0
169 0 2 1.575 45.492160413347186 51.85808970365521 39.06728680380335 0 0 0
170 0 2 1.575 45.65411724051838 49.60591401022769 36.974570488513926 0 0 0
171 0 1 1.05 47.62165065601221 51.85286041967781 37.000025621515405 0 0 0
172 0 3 -1.05 45.65123546274029 49.783923644587404 39.265133263014214 0 0 0
173 0 3 -1.05 45.663561943484645 51.47561879788524 37.08152318312195 0 0 0
174 0 3 -1.05 47.530090406997985 51.637263323027994 39.31013979048572 0 0 0
175 0 3 -1.05 47.53585122681104 50.00496187697671 37.1792163302011 0 0 0
177 0 2 1.575 47.605315048968095 49.66816720057024 47.578920478114746 0 0 0
178 0 1 1.05 45.48922425319367 51.808311327920144 47.56556543399666 0 0 0
179 0 2 1.575 45.51767826764382 49.700199345428366 45.43514529260774 0 0 0
180 0 2 1.575 47.54978711269793 51.8193308346285 45.46267566745777 0 0 0
181 0 3 -1.05 45.620986045048674 49.74991510079175 47.59764118818696 0 0 0