LAMMPS (17 Feb 2022)
variable	rand equal round(random(0,1e7,452345))

units           real
atom_style      full
boundary        f f f
timestep        0.5

pair_style      lj/cut/coul/cut 45.0
neigh_modify	one 10000
comm_style	tiled

read_data       cub_np_un.data
Reading data file ...
  orthogonal box = (-2.220001 -2.220001 -2.220001) to (99.540001 99.540001 99.540001)
  2 by 2 by 2 MPI processor grid
  reading atoms ...
  1466 atoms
  reading velocities ...
  1466 velocities
Finding 1-2 1-3 1-4 neighbors ...
  special bond factors lj:    0        0        0       
  special bond factors coul:  0        0        0       
     0 = max # of 1-2 neighbors
     0 = max # of 1-3 neighbors
     0 = max # of 1-4 neighbors
     1 = max # of special neighbors
  special bonds CPU = 0.002 seconds
  read_data CPU = 0.009 seconds
balance		1.1 rcb
Balancing ...
  generated 3 of 3 mixed pair_coeff terms from geometric mixing rule
Neighbor list info ...
  update every 1 steps, delay 10 steps, check yes
  max neighbors/atom: 10000, page size: 100000
  master list distance cutoff = 47
  ghost atom cutoff = 47
  binsize = 23.5, bins = 5 5 5
  1 neighbor lists, perpetual/occasional/extra = 1 0 0
  (1) pair lj/cut/coul/cut, perpetual
      attributes: half, newton on
      pair build: half/bin/newton
      stencil: half/bin/3d
      bin: standard

dump		dmp all custom 10000 swap.lammpstrj id mol type q x y z
dump_modify	dmp sort id

group		fe type 1 2
602 atoms in group fe

fix             nvt all nvt temp 1000.0 100.0 $(100.0*dt)
fix             nvt all nvt temp 1000.0 100.0 50
fix             swp fe atom/swap 1 10 ${rand} 100000 ke no types 1 2
fix             swp fe atom/swap 1 10 855824 100000 ke no types 1 2
velocity        all create 1000.0 ${rand} rot yes mom yes dist gaussian
velocity        all create 1000.0 710414 rot yes mom yes dist gaussian
thermo_style    custom step temp pe f_swp[1] f_swp[2]
thermo          1000
#run		10000
run             2000000 # 1ns
  generated 3 of 3 mixed pair_coeff terms from geometric mixing rule
Per MPI rank memory allocation (min/avg/max) = 7.265 | 7.648 | 8.03 Mbytes
Step Temp PotEng f_swp[1] f_swp[2] 
       0         1000   -285487.23            0            0 
    1000    1736.0454   -283841.01        10000         8801 
    2000    1619.8902   -285069.34        20000        17600 
    3000    1582.8877   -285148.46        30000        26528 
    4000    1448.7227   -285102.17        40000        35453 
    5000    1513.9016   -285198.26        50000        44321 
    6000    1513.5446    -285728.3        60000        53235 
    7000    1420.1101   -285290.88        70000        62138 
    8000    1503.5764   -286127.64        80000        71014 
    9000    1480.5578   -285654.65        90000        79862 
   10000    1411.8245   -285794.35       100000        88642 
   11000    1363.4837   -285959.97       110000        97461 
   12000    1412.1814   -286211.62       120000       106364 
   13000     1423.569   -286055.09       130000       115161 
   14000    1430.2428   -285810.35       140000       123984 
   15000    1456.5849   -286013.78       150000       132880 
   16000    1438.5968    -286382.6       160000       141772 
   17000    1354.5134   -286450.75       170000       150650 
   18000    1376.7256   -286436.21       180000       159502 
   19000    1335.1697   -286255.41       190000       168409 
   20000    1367.0212   -286389.08       200000       177278 
   21000    1347.1302   -286228.56       210000       186177 
   22000    1419.1735   -286076.48       220000       195057 
   23000    1369.8271   -286407.73       230000       203923 
   24000    1338.7934    -286402.3       240000       212836 
   25000    1386.1023   -286043.95       250000       221703 
   26000    1420.0353   -286546.12       260000       230567 
   27000    1369.6426   -286291.51       270000       239469 
   28000    1345.6208   -286170.96       280000       248372 
   29000    1368.1139   -285918.47       290000       257227 
   30000    1432.6233   -286346.89       300000       266086 
   31000    1322.4152   -286048.77       310000       275052 
   32000    1312.5568   -285790.73       320000       283904 
   33000    1298.4638   -286775.26       330000       292754 
   34000    1310.9293   -286987.16       340000       301686 
   35000    1343.5173    -286571.5       350000       310599 
   36000    1397.2346   -285809.23       360000       319466 
   37000     1382.459   -286435.08       370000       328332 
   38000    1404.1171   -286807.11       380000       337181 
   39000    1385.3621   -286735.11       390000       346107 
   40000    1404.3561   -286961.84       400000       355013 
   41000    1314.2874   -286830.43       410000       363910 
   42000    1400.3335   -286543.57       420000       372796 
   43000    1364.2932   -286768.23       430000       381682 
   44000    1353.0021   -286743.37       440000       390600 
   45000    1312.1885   -286611.96       450000       399507 
   46000    1383.5776   -286928.76       460000       408404 
   47000    1363.1173   -286744.75       470000       417267 
   48000    1254.8377   -286814.42       480000       426193 
   49000    1302.2034   -286315.15       490000       435100 
   50000    1301.6254   -286688.53       500000       443958 
   51000    1276.9375   -286372.67       510000       452832 
   52000    1317.9805   -286618.78       520000       461714 
   53000    1345.7647   -286718.52       530000       470518 
   54000    1274.0867   -286092.89       540000       479394 
   55000    1266.3196   -286555.84       550000       488306 
   56000    1388.7745   -286633.51       560000       497185 
   57000    1320.4643   -286815.75       570000       506027 
   58000    1355.8431   -286965.53       580000       514883 
   59000    1319.2739   -286620.48       590000       523799 
   60000    1315.2814    -286640.6       600000       532742 
   61000    1282.4304   -286812.94       610000       541584 
   62000    1220.6859   -286768.01       620000       550469 
   63000    1317.8267   -286496.19       630000       559347 
   64000    1351.7873   -287212.96       640000       568252 
   65000    1387.2301   -286689.37       650000       577129 
   66000    1345.1175   -286658.72       660000       586027 
   67000    1339.4295   -286691.52       670000       594894 
   68000    1284.6617   -286489.02       680000       603774 
   69000    1302.5816   -286463.43       690000       612682 
   70000    1306.5247   -286931.47       700000       621528 
   71000    1334.7316   -286183.02       710000       630325 
   72000    1351.6721   -287004.53       720000       639186 
   73000    1297.7696    -286416.6       730000       648111 
   74000    1333.3962   -287038.59       740000       656996 
   75000    1373.9987    -286883.7       750000       665852 
   76000    1245.9142   -286520.61       760000       674745 
   77000    1340.3715   -286897.82       770000       683638 
   78000    1285.6031   -286379.81       780000       692508 
   79000    1319.4694   -287250.74       790000       701406 
   80000    1250.0314   -286839.46       800000       710248 
   81000    1293.4934   -287103.06       810000       719124 
   82000    1305.7616   -286788.97       820000       727978 
   83000    1259.8195   -286639.49       830000       736851 
   84000    1309.1633   -286867.73       840000       745751 
   85000    1340.0101   -286502.84       850000       754631 
   86000    1326.4942   -286708.81       860000       763492 
   87000    1284.4292    -287141.6       870000       772329 
   88000    1377.4277   -287314.48       880000       781213 
   89000    1267.3938   -286668.88       890000       790088 
   90000    1293.7378   -287080.69       900000       798965 
   91000    1385.6648   -287310.17       910000       807888 
   92000    1280.8148   -287346.14       920000       816761 
   93000    1314.9098   -287190.48       930000       825626 
   94000    1327.9054   -287000.46       940000       834513 
   95000    1364.8449   -286850.89       950000       843409 
   96000    1268.9879   -286749.09       960000       852293 
   97000    1285