ITEM: TIMESTEP
0
ITEM: NUMBER OF ATOMS
1466
ITEM: BOX BOUNDS ff ff ff
-2.2200009999999999e+00 9.9540001000000004e+01
-2.2200009999999999e+00 9.9540001000000004e+01
-2.2200009999999999e+00 9.9540001000000004e+01
ITEM: ATOMS id mol type q x y z
1 0 2 1.575 38.06 38.06 38.06
2 0 3 -1.05 39.1568 45.4432 45.4432
3 0 3 -1.05 45.4432 39.1568 45.4432
4 0 3 -1.05 45.4432 45.4432 39.1568
5 0 3 -1.05 39.1568 39.1568 39.1568
6 0 2 1.575 38.06 38.06 46.54
7 0 3 -1.05 45.4432 45.4432 47.6368
8 0 3 -1.05 39.1568 39.1568 47.6368
9 0 3 -1.05 39.1568 45.4432 36.9632
10 0 3 -1.05 45.4432 39.1568 36.9632
11 0 2 1.575 38.06 46.54 38.06
12 0 3 -1.05 45.4432 47.6368 45.4432
13 0 3 -1.05 39.1568 47.6368 39.1568
14 0 2 1.575 38.06 46.54 46.54
15 0 3 -1.05 39.1568 47.6368 47.6368
16 0 3 -1.05 45.4432 47.6368 36.9632
17 0 3 -1.05 39.1568 36.9632 45.4432
18 0 3 -1.05 45.4432 36.9632 39.1568
19 0 3 -1.05 45.4432 36.9632 47.6368
20 0 3 -1.05 39.1568 36.9632 36.9632
21 0 2 1.575 46.54 38.06 38.06
22 0 3 -1.05 47.6368 45.4432 45.4432
23 0 3 -1.05 47.6368 39.1568 39.1568
24 0 2 1.575 46.54 38.06 46.54
25 0 3 -1.05 47.6368 39.1568 47.6368
26 0 3 -1.05 47.6368 45.4432 36.9632
27 0 1 1.05 46.54 46.54 38.06
28 0 3 -1.05 47.6368 47.6368 39.1568
29 0 1 1.05 46.54 46.54 46.54
30 0 3 -1.05 47.6368 47.6368 47.6368
31 0 3 -1.05 47.6368 36.9632 45.4432
32 0 3 -1.05 47.6368 36.9632 36.9632
33 0 3 -1.05 36.9632 39.1568 45.4432
34 0 3 -1.05 36.9632 45.4432 39.1568
35 0 3 -1.05 36.9632 45.4432 47.6368
36 0 3 -1.05 36.9632 39.1568 36.9632
37 0 3 -1.05 36.9632 47.6368 45.4432
38 0 3 -1.05 36.9632 47.6368 36.9632
39 0 3 -1.05 36.9632 36.9632 39.1568
40 0 3 -1.05 36.9632 36.9632 47.6368
41 0 2 1.575 40.18 40.18 44.42
42 0 2 1.575 39.12 39.12 41.24
43 0 2 1.575 37 39.12 43.36
44 0 2 1.575 39.12 37 43.36
45 0 2 1.575 37 37 41.24
46 0 3 -1.05 39.0832 39.0832 43.3232
47 0 3 -1.05 39.0832 37.0368 41.2768
48 0 3 -1.05 37.0368 37.0368 43.3232
49 0 3 -1.05 37.0368 39.0832 41.2768
50 0 2 1.575 40.18 40.18 52.9
51 0 2 1.575 39.12 39.12 49.72
52 0 2 1.575 37 39.12 51.84
53 0 2 1.575 39.12 37 51.84
54 0 2 1.575 37 37 49.72
55 0 3 -1.05 39.0832 39.0832 51.8032
56 0 3 -1.05 39.0832 37.0368 49.7568
57 0 3 -1.05 37.0368 37.0368 51.8032
58 0 3 -1.05 37.0368 39.0832 49.7568
59 0 2 1.575 40.18 48.66 44.42
60 0 2 1.575 39.12 47.6 41.24
61 0 2 1.575 37 47.6 43.36
62 0 2 1.575 39.12 45.48 43.36
63 0 2 1.575 37 45.48 41.24
64 0 3 -1.05 39.0832 47.5632 43.3232
65 0 3 -1.05 39.0832 45.5168 41.2768
66 0 3 -1.05 37.0368 45.5168 43.3232
67 0 3 -1.05 37.0368 47.5632 41.2768
68 0 2 1.575 40.18 48.66 52.9
69 0 1 1.05 39.12 47.6 49.72
70 0 2 1.575 37 47.6 51.84
71 0 2 1.575 39.12 45.48 51.84
72 0 1 1.05 37 45.48 49.72
73 0 3 -1.05 39.0832 47.5632 51.8032
74 0 3 -1.05 39.0832 45.5168 49.7568
75 0 3 -1.05 37.0368 45.5168 51.8032
76 0 3 -1.05 37.0368 47.5632 49.7568
77 0 2 1.575 48.66 40.18 44.42
78 0 2 1.575 47.6 39.12 41.24
79 0 2 1.575 45.48 39.12 43.36
80 0 1 1.05 47.6 37 43.36
81 0 2 1.575 45.48 37 41.24
82 0 3 -1.05 47.5632 39.0832 43.3232
83 0 3 -1.05 47.5632 37.0368 41.2768
84 0 3 -1.05 45.5168 37.0368 43.3232
85 0 3 -1.05 45.5168 39.0832 41.2768
86 0 2 1.575 48.66 40.18 52.9
87 0 2 1.575 47.6 39.12 49.72
88 0 1 1.05 45.48 39.12 51.84
89 0 2 1.575 47.6 37 51.84
90 0 2 1.575 45.48 37 49.72
91 0 3 -1.05 47.5632 39.0832 51.8032
92 0 3 -1.05 47.5632 37.0368 49.7568
93 0 3 -1.05 45.5168 37.0368 51.8032
94 0 3 -1.05 45.5168 39.0832 49.7568
95 0 2 1.575 48.66 48.66 44.42
96 0 2 1.575 47.6 47.6 41.24
97 0 2 1.575 45.48 47.6 43.36
98 0 1 1.05 47.6 45.48 43.36
99 0 2 1.575 45.48 45.48 41.24
100 0 3 -1.05 47.5632 47.5632 43.3232
101 0 3 -1.05 47.5632 45.5168 41.2768
102 0 3 -1.05 45.5168 45.5168 43.3232
103 0 3 -1.05 45.5168 47.5632 41.2768
104 0 2 1.575 48.66 48.66 52.9
105 0 2 1.575 47.6 47.6 49.72
106 0 2 1.575 45.48 47.6 51.84
107 0 1 1.05 47.6 45.48 51.84
108 0 1 1.05 45.48 45.48 49.72
109 0 3 -1.05 47.5632 47.5632 51.8032
110 0 3 -1.05 47.5632 45.5168 49.7568
111 0 3 -1.05 45.5168 45.5168 51.8032
112 0 3 -1.05 45.5168 47.5632 49.7568
113 0 2 1.575 40.18 44.42 40.18
114 0 2 1.575 39.12 41.24 39.12
115 0 2 1.575 37 43.36 39.12
116 0 2 1.575 37 41.24 37
117 0 2 1.575 39.12 43.36 37
118 0 3 -1.05 37.0368 41.2768 39.0832
119 0 3 -1.05 37.0368 43.3232 37.0368
120 0 3 -1.05 39.0832 43.3232 39.0832
121 0 3 -1.05 39.0832 41.2768 37.0368
122 0 2 1.575 40.18 44.42 48.66
123 0 2 1.575 39.12 41.24 47.6
124 0 2 1.575 37 43.36 47.6
125 0 2 1.575 37 41.24 45.48
126 0 2 1.575 39.12 43.36 45.48
127 0 3 -1.05 37.0368 41.2768 47.5632
128 0 3 -1.05 37.0368 43.3232 45.5168
129 0 3 -1.05 39.0832 43.3232 47.5632
130 0 3 -1.05 39.0832 41.2768 45.5168
131 0 2 1.575 40.18 52.9 40.18
132 0 2 1.575 39.12 49.72 39.12
133 0 2 1.575 37 51.84 39.12
134 0 2 1.575 37 49.72 37
135 0 2 1.575 39.12 51.84 37
136 0 3 -1.05 37.0368 49.7568 39.0832
137 0 3 -1.05 37.0368 51.8032 37.0368
138 0 3 -1.05 39.0832 51.8032 39.0832
139 0 3 -1.05 39.0832 49.7568 37.0368
140 0 2 1.575 40.18 52.9 48.66
141 0 2 1.575 39.12 49.72 47.6
142 0 2 1.575 37 51.84 47.6
143 0 2 1.575 37 49.72 45.48
144 0 2 1.575 39.12 51.84 45.48
145 0 3 -1.05 37.0368 49.7568 47.5632
146 0 3 -1.05 37.0368 51.8032 45.5168
147 0 3 -1.05 39.0832 51.8032 47.5632
148 0 3 -1.05 39.0832 49.7568 45.5168
149 0 2 1.575 48.66 44.42 40.18
150 0 2 1.575 47.6 41.24 39.12
151 0 2 1.575 45.48 43.36 39.12
152 0 2 1.575 45.48 41.24 37
153 0 2 1.575 47.6 43.36 37
154 0 3 -1.05 45.5168 41.2768 39.0832
155 0 3 -1.05 45.5168 43.3232 37.0368
156 0 3 -1.05 47.5632 43.3232 39.0832
157 0 3 -1.05 47.5632 41.2768 37.0368
158 0 1 1.05 48.66 44.42 48.66
159 0 1 1.05 47.6 41.24 47.6
160 0 2 1.575 45.48 43.36 47.6
161 0 1 1.05 45.48 41.24 45.48
162 0 2 1.575 47.6 43.36 45.48
163 0 3 -1.05 45.5168 41.2768 47.5632
164 0 3 -1.05 45.5168 43.3232 45.5168
165 0 3 -1.05 47.5632 43.3232 47.5632
166 0 3 -1.05 47.5632 41.2768 45.5168
167 0 1 1.05 48.66 52.9 40.18
168 0 2 1.575 47.6 49.72 39.12
169 0 2 1.575 45.48 51.84 39.12
170 0 2 1.575 45.48 49.72 37
171 0 2 1.575 47.6 51.84 37
172 0 3 -1.05 45.5168 49.7568 39.0832
173 0 3 -1.05 45.5168 51.8032 37.0368
174 0 3 -1.05 47.5632 51.8032 39.0832
175 0 3 -1.05 47.5632 49.7568 37.0368
176 0 2 1.575 48.66 52.9 48.66
177 0 1 1.05 47.6 49.72 47.6
178 0 2 1.575 45.48 51.84 47.6
179 0 2 1.575 45.48 49.72 45.48
180 0 2 1.575 47.6 51.84 45.48
181 0 3 -1.05 45.5168 49.7568 47.5632
182 0 3 -1.05 45.5168 51.8032 45.5168
183 0 3 -1.05 47.5632 51.8032 47.5632
184 0 3 -1.05 47.5632 49.7568 45.5168
185 0 2 1.575 38.06 42.3 42.3
186 0 3 -1.05 45.4432 41.2032 43.3968
187 0 3 -1.05 39.1568 43.3968 43.3968
188 0 3 -1.05 39.1568 41.2032 41.2032
189 0 3 -1.05 45.4432 43.3968 41.2032
190 0 1 1.05 38.06 42.3 50.78
191 0 3 -1.05 45.4432 41.2032 51.8768
192 0 3 -1.05 39.1568 43.3968 51.8768
193 0 3 -1.05 39.1568 41.2032 49.6832
194 0 3 -1.05 45.4432 43.3968 49.6832
195 0 2 1.575 38.06 50.78 42.3
196 0 3 -1.05 45.4432 49.6832 43.3968
197 0 3 -1.05 39.1568 51.8768 43.3968
198 0 3 -1.05 39.1568 49.6832 41.2032
199 0 3 -1.05 45.4432 51.8768 41.2032
200 0 2 1.575 38.06 50.78 50.78
201 0 3 -1.05 45.4432 49.6832 51.8768
202 0 3 -1.05 39.1568 51.8768 51.8768
203 0 3 -1.05 39.1568 49.6832 49.6832
204 0 3 -1.05 45.4432 51.8768 49.6832
205 0 2 1.575 46.54 42.3 42.3
206 0 3 -1.05 47.6368 43.3968 43.3968
207 0 3 -1.05 47.6368 41.2032 41.2032
208 0 2 1.575 46.54 42.3 50.78
209 0 3 -1.05 47.6368 43.3968 51.8768
210 0 3 -1.05 47.6368 41.2032 49.6832
211 0 2 1.575 46.54 50.78 42.3
212 0 3 -1.05 47.6368 51.8768 43.3968
213 0 3 -1.05 47.6368 49.6832 41.2032
214 0 2 1.575 46.54 50.78 50.78
215 0 3 -1.05 47.6368 51.8768 51.8768
216 0 3 -1.05 47.6368 49.6832 49.6832
217 0 3 -1.05 36.9632 41.2032 43.3968
218 0 3 -1.05 36.9632 43.3968 41.2032
219 0 3 -1.05 36.9632 41.2032 51.8768
220 0 3 -1.05 36.9632 43.3968 49.6832
221 0 3 -1.05 36.9632 49.6832 43.3968
222 0 3 -1.05 36.9632 51.8768 41.2032
223 0 3 -1.05 36.9632 49.6832 51.8768
224 0 3 -1.05 36.9632 51.8768 49.6832
225 0 2 1.575 44.42 40.18 40.18
226 0 2 1.575 41.24 37 37
227 0 2 1.575 41.24 39.12 39.12
228 0 2 1.575 43.36 37 39.12
229 0 2 1.575 43.36 39.12 37
230 0 3 -1.05 43.3232 37.0368 37.0368
231 0 3 -1.05 43.3232 39.0832 39.0832
232 0 3 -1.05 41.2768 39.0832 37.0368
233 0 3 -1.05 41.2768 37.0368 39.0832
234 0 2 1.575 44.42 40.18 48.66
235 0 2 1.575 41.24 37 45.48
236 0 2 1.575 41.24 39.12 47.6
237 0 1 1.05 43.36 37 47.6
238 0 2 1.575 43.36 39.12 45.48
239 0 3 -1.05 43.3232 37.0368 45.5168
240 0 3 -1.05 43.3232 39.0832 47.5632
241 0 3 -1.05 41.2768 39.0832 45.5168
242 0 3 -1.05 41.2768 37.0368 47.5632
243 0 2 1.575 44.42 48.66 40.18
244 0 2 1.575 41.24 45.48 37
245 0 2 1.575 41.24 47.6 39.12
246 0 2 1.575 43.36 45.48 39.12
247 0 2 1.575 43.36 47.6 37
248 0 3 -1.05 43.3232 45.5168 37.0368
249 0 3 -1.05 43.3232 47.5632 39.0832
250 0 3 -1.05 41.2768 47.5632 37.0368
251 0 3 -1.05 41.2768 45.5168 39.0832
252 0 2 1.575 44.42 48.66 48.66
253 0 2 1.575 41.24 45.48 45.48
254 0 2 1.575 41.24 47.6 47.6
255 0 2 1.575 43.36 45.48 47.6
256 0 1 1.05 43.36 47.6 45.48
257 0 3 -1.05 43.3232 45.5168 45.5168
258 0 3 -1.05 43.3232 47.5632 47.5632
259 0 3 -1.05 41.2768 47.5632 45.5168
260 0 3 -1.05 41.2768 45.5168 47.5632
261 0 2 1.575 52.9 40.18 40.18
262 0 2 1.575 49.72 37 37
263 0 2 1.575 49.72 39.12 39.12
264 0 2 1.575 51.84 37 39.12
265 0 2 1.575 51.84 39.12 37
266 0 3 -1.05 51.8032 37.0368 37.0368
267 0 3 -1.05 51.8032 39.0832 39.0832
268 0 3 -1.05 49.7568 39.0832 37.0368
269 0 3 -1.05 49.7568 37.0368 39.0832
270 0 2 1.575 52.9 40.18 48.66
271 0 2 1.575 49.72 37 45.48
272 0 2 1.575 49.72 39.12 47.6
273 0 2 1.575 51.84 37 47.6
274 0 2 1.575 51.84 39.12 45.48
275 0 3 -1.05 51.8032 37.0368 45.5168
276 0 3 -1.05 51.8032 39.0832 47.5632
277 0 3 -1.05 49.7568 39.0832 45.5168
278 0 3 -1.05 49.7568 37.0368 47.5632
279 0 2 1.575 52.9 48.66 40.18
280 0 2 1.575 49.72 45.48 37
281 0 2 1.575 49.72 47.6 39.12
282 0 1 1.05 51.84 45.48 39.12
283 0 2 1.575 51.84 47.6 37
284 0 3 -1.05 51.8032 45.5168 37.0368
285 0 3 -1.05 51.8032 47.5632 39.0832
286 0 3 -1.05 49.7568 47.5632 37.0368
287 0 3 -1.05 49.7568 45.5168 39.0832
288 0 2 1.575 52.9 48.66 48.66
289 0 1 1.05 49.72 45.48 45.48
290 0 2 1.575 49.72 47.6 47.6
291 0 2 1.575 51.84 45.48 47.6
292 0 2 1.575 51.84 47.6 45.48
293 0 3 -1.05 51.8032 45.5168 45.5168
294 0 3 -1.05 51.8032 47.5632 47.5632
295 0 3 -1.05 49.7568 47.5632 45.5168
296 0 3 -1.05 49.7568 45.5168 47.5632
297 0 2 1.575 42.3 38.06 42.3
298 0 3 -1.05 41.2032 39.1568 41.2032
299 0 3 -1.05 43.3968 45.4432 41.2032
300 0 3 -1.05 43.3968 39.1568 43.3968
301 0 3 -1.05 41.2032 45.4432 43.3968
302 0 2 1.575 42.3 38.06 50.78
303 0 3 -1.05 41.2032 39.1568 49.6832
304 0 3 -1.05 43.3968 45.4432 49.6832
305 0 3 -1.05 43.3968 39.1568 51.8768
306 0 3 -1.05 41.2032 45.4432 51.8768
307 0 2 1.575 42.3 46.54 42.3
308 0 3 -1.05 41.2032 47.6368 41.2032
309 0 3 -1.05 43.3968 47.6368 43.3968
310 0 2 1.575 42.3 46.54 50.78
311 0 3 -1.05 41.2032 47.6368 49.6832
312 0 3 -1.05 43.3968 47.6368 51.8768
313 0 3 -1.05 43.3968 36.9632 41.2032
314 0 3 -1.05 41.2032 36.9632 43.3968
315 0 3 -1.05 43.3968 36.9632 49.6832
316 0 3 -1.05 41.2032 36.9632 51.8768
317 0 1 1.05 50.78 38.06 42.3
318 0 3 -1.05 49.6832 39.1568 41.2032
319 0 3 -1.05 51.8768 45.4432 41.2032
320 0 3 -1.05 51.8768 39.1568 43.3968
321 0 3 -1.05 49.6832 45.4432 43.3968
322 0 2 1.575 50.78 38.06 50.78
323 0 3 -1.05 49.6832 39.1568 49.6832
324 0 3 -1.05 51.8768 45.4432 49.6832
325 0 3 -1.05 51.8768 39.1568 51.8768
326 0 3 -1.05 49.6832 45.4432 51.8768
327 0 2 1.575 50.78 46.54 42.3
328 0 3 -1.05 49.6832 47.6368 41.2032
329 0 3 -1.05 51.8768 47.6368 43.3968
330 0 2 1.575 50.78 46.54 50.78
331 0 3 -1.05 49.6832 47.6368 49.6832
332 0 3 -1.05 51.8768 47.6368 51.8768
333 0 3 -1.05 51.8768 36.9632 41.2032
334 0 3 -1.05 49.6832 36.9632 43.3968
335 0 3 -1.05 51.8768 36.9632 49.6832
336 0 3 -1.05 49.6832 36.9632 51.8768
337 0 1 1.05 42.3 42.3 38.06
338 0 3 -1.05 43.3968 43.3968 39.1568
339 0 3 -1.05 41.2032 41.2032 39.1568
340 0 3 -1.05 41.2032 43.3968 45.4432
341 0 3 -1.05 43.3968 41.2032 45.4432
342 0 2 1.575 42.3 42.3 46.54
343 0 3 -1.05 43.3968 43.3968 47.6368
344 0 3 -1.05 41.2032 41.2032 47.6368
345 0 3 -1.05 41.2032 43.3968 36.9632
346 0 3 -1.05 43.3968 41.2032 36.9632
347 0 2 1.575 42.3 50.78 38.06
348 0 3 -1.05 43.3968 51.8768 39.1568
349 0 3 -1.05 41.2032 49.6832 39.1568
350 0 3 -1.05 41.2032 51.8768 45.4432
351 0 3 -1.05 43.3968 49.6832 45.4432
352 0 2 1.575 42.3 50.78 46.54
353 0 3 -1.05 43.3968 51.8768 47.6368
354 0 3 -1.05 41.2032 49.6832 47.6368
355 0 3 -1.05 41.2032 51.8768 36.9632
356 0 3 -1.05 43.3968 49.6832 36.9632
357 0 2 1.575 50.78 42.3 38.06
358 0 3 -1.05 51.8768 43.3968 39.1568
359 0 3 -1.05 49.6832 41.2032 39.1568
360 0 3 -1.05 49.6832 43.3968 45.4432
361 0 3 -1.05 51.8768 41.2032 45.4432
362 0 2 1.575 50.78 42.3 46.54
363 0 3 -1.05 51.8768 43.3968 47.6368
364 0 3 -1.05 49.6832 41.2032 47.6368
365 0 3 -1.05 49.6832 43.3968 36.9632
366 0 3 -1.05 51.8768 41.2032 36.9632
367 0 2 1.575 50.78 50.78 38.06
368 0 3 -1.05 51.8768 51.8768 39.1568
369 0 3 -1.05 49.6832 49.6832 39.1568
370 0 3 -1.05 49.6832 51.8768 45.4432
371 0 3 -1.05 51.8768 49.6832 45.4432
372 0 1 1.05 50.78 50.78 46.54
373 0 3 -1.05 51.8768 51.8768 47.6368
374 0 3 -1.05 49.6832 49.6832 47.6368
375 0 3 -1.05 49.6832 51.8768 36.9632
376 0 3 -1.05 51.8768 49.6832 36.9632
377 0 2 1.575 44.42 44.42 44.42
378 0 2 1.575 43.36 43.36 41.24
379 0 2 1.575 43.36 41.24 43.36
380 0 2 1.575 41.24 43.36 43.36
381 0 2 1.575 41.24 41.24 41.24
382 0 3 -1.05 41.2768 43.3232 41.2768
383 0 3 -1.05 41.2768 41.2768 43.3232
384 0 3 -1.05 43.3232 41.2768 41.2768
385 0 3 -1.05 43.3232 43.3232 43.3232
386 0 2 1.575 44.42 44.42 52.9
387 0 1 1.05 43.36 43.36 49.72
388 0 2 1.575 43.36 41.24 51.84
389 0 2 1.575 41.24 43.36 51.84
390 0 2 1.575 41.24 41.24 49.72
391 0 3 -1.05 41.2768 43.3232 49.7568
392 0 3 -1.05 41.2768 41.2768 51.8032
393 0 3 -1.05 43.3232 41.2768 49.7568
394 0 3 -1.05 43.3232 43.3232 51.8032
395 0 2 1.575 44.42 52.9 44.42
396 0 2 1.575 43.36 51.84 41.24
397 0 2 1.575 43.36 49.72 43.36
398 0 1 1.05 41.24 51.84 43.36
399 0 2 1.575 41.24 49.72 41.24
400 0 3 -1.05 41.2768 51.8032 41.2768
401 0 3 -1.05 41.2768 49.7568 43.3232
402 0 3 -1.05 43.3232 49.7568 41.2768
403 0 3 -1.05 43.3232 51.8032 43.3232
404 0 2 1.575 44.42 52.9 52.9
405 0 2 1.575 43.36 51.84 49.72
406 0 2 1.575 43.36 49.72 51.84
407 0 2 1.575 41.24 51.84 51.84
408 0 2 1.575 41.24 49.72 49.72
409 0 3 -1.05 41.2768 51.8032 49.7568
410 0 3 -1.05 41.2768 49.7568 51.8032
411 0 3 -1.05 43.3232 49.7568 49.7568
412 0 3 -1.05 43.3232 51.8032 51.8032
413 0 2 1.575 52.9 44.42 44.42
414 0 2 1.575 51.84 43.36 41.24
415 0 2 1.575 51.84 41.24 43.36
416 0 2 1.575 49.72 43.36 43.36
417 0 2 1.575 49.72 41.24 41.24
418 0 3 -1.05 49.7568 43.3232 41.2768
419 0 3 -1.05 49.7568 41.2768 43.3232
420 0 3 -1.05 51.8032 41.2768 41.2768
421 0 3 -1.05 51.8032 43.3232 43.3232
422 0 2 1.575 52.9 44.42 52.9
423 0 2 1.575 51.84 43.36 49.72
424 0 1 1.05 51.84 41.24 51.84
425 0 2 1.575 49.72 43.36 51.84
426 0 2 1.575 49.72 41.24 49.72
427 0 3 -1.05 49.7568 43.3232 49.7568
428 0 3 -1.05 49.7568 41.2768 51.8032
429 0 3 -1.05 51.8032 41.2768 49.7568
430 0 3 -1.05 51.8032 43.3232 51.8032
431 0 1 1.05 52.9 52.9 44.42
432 0 2 1.575 51.84 51.84 41.24
433 0 1 1.05 51.84 49.72 43.36
434 0 2 1.575 49.72 51.84 43.36
435 0 2 1.575 49.72 49.72 41.24
436 0 3 -1.05 49.7568 51.8032 41.2768
437 0 3 -1.05 49.7568 49.7568 43.3232
438 0 3 -1.05 51.8032 49.7568 41.2768
439 0 3 -1.05 51.8032 51.8032 43.3232
440 0 2 1.575 52.9 52.9 52.9
441 0 2 1.575 51.84 51.84 49.72
442 0 2 1.575 51.84 49.72 51.84
443 0 2 1.575 49.72 51.84 51.84
444 0 2 1.575 49.72 49.72 49.72
445 0 3 -1.05 49.7568 51.8032 49.7568
446 0 3 -1.05 49.7568 49.7568 51.8032
447 0 3 -1.05 51.8032 49.7568 49.7568
448 0 3 -1.05 51.8032 51.8032 51.8032
449 0 3 -1.05 39.1568 45.4432 53.9232
450 0 3 -1.05 45.4432 39.1568 53.9232
451 0 2 1.575 38.06 38.06 55.02
452 0 3 -1.05 41.2032 41.2032 56.1168
453 0 3 -1.05 43.3968 43.3968 56.1168
454 0 3 -1.05 45.4432 45.4432 56.1168
455 0 3 -1.05 39.1568 39.1568 56.1168
456 0 2 1.575 42.3 42.3 55.02
457 0 3 -1.05 43.3968 41.2032 53.9232
458 0 3 -1.05 41.2032 43.3968 53.9232
459 0 3 -1.05 45.4432 47.6368 53.9232
460 0 2 1.575 38.06 46.54 55.02
461 0 3 -1.05 49.6832 36.9632 60.3568
462 0 3 -1.05 39.1568 47.6368 56.1168
463 0 3 -1.05 51.8768 36.9632 58.1632
464 0 3 -1.05 51.8768 47.6368 60.3568
465 0 3 -1.05 39.1568 36.9632 53.9232
466 0 3 -1.05 49.6832 47.6368 58.1632
467 0 3 -1.05 45.4432 36.9632 56.1168
468 0 2 1.575 50.78 46.54 59.26
469 0 3 -1.05 47.6368 45.4432 53.9232
470 0 1 1.05 46.54 38.06 55.02
471 0 3 -1.05 41.2032 51.8768 53.9232
472 0 3 -1.05 47.6368 39.1568 56.1168
473 0 3 -1.05 49.6832 45.4432 60.3568
474 0 3 -1.05 51.8768 39.1568 60.3568
475 0 2 1.575 46.54 46.54 55.02
476 0 3 -1.05 47.6368 47.6368 56.1168
477 0 3 -1.05 51.8768 45.4432 58.1632
478 0 3 -1.05 49.6832 39.1568 58.1632
479 0 3 -1.05 47.6368 36.9632 53.9232
480 0 2 1.575 50.78 38.06 59.26
481 0 3 -1.05 36.9632 39.1568 53.9232
482 0 3 -1.05 41.2032 36.9632 60.3568
483 0 3 -1.05 36.9632 45.4432 56.1168
484 0 3 -1.05 43.3968 36.9632 58.1632
485 0 3 -1.05 36.9632 47.6368 53.9232
486 0 3 -1.05 43.3968 49.6832 53.9232
487 0 3 -1.05 36.9632 36.9632 56.1168
488 0 3 -1.05 43.3968 47.6368 60.3568
489 0 3 -1.05 51.8032 51.8032 60.2832
490 0 2 1.575 39.12 39.12 58.2
491 0 2 1.575 37 39.12 60.32
492 0 2 1.575 39.12 37 60.32
493 0 2 1.575 37 37 58.2
494 0 3 -1.05 39.0832 39.0832 60.2832
495 0 3 -1.05 39.0832 37.0368 58.2368
496 0 3 -1.05 37.0368 37.0368 60.2832
497 0 3 -1.05 37.0368 39.0832 58.2368
498 0 3 -1.05 51.8032 49.7568 58.2368
499 0 3 -1.05 49.7568 49.7568 60.2832
500 0 3 -1.05 49.7568 51.8032 58.2368
501 0 2 1.575 49.72 49.72 58.2
502 0 2 1.575 49.72 51.84 60.32
503 0 3 -1.05 41.2032 47.6368 58.1632
504 0 2 1.575 42.3 46.54 59.26
505 0 2 1.575 42.3 50.78 55.02
506 0 3 -1.05 41.2032 45.4432 60.3568
507 0 2 1.575 51.84 49.72 60.32
508 0 2 1.575 39.12 47.6 58.2
509 0 2 1.575 37 47.6 60.32
510 0 2 1.575 39.12 45.48 60.32
511 0 2 1.575 37 45.48 58.2
512 0 3 -1.05 39.0832 47.5632 60.2832
513 0 3 -1.05 39.0832 45.5168 58.2368
514 0 3 -1.05 37.0368 45.5168 60.2832
515 0 3 -1.05 37.0368 47.5632 58.2368
516 0 2 1.575 51.84 51.84 58.2
517 0 3 -1.05 43.3968 39.1568 60.3568
518 0 3 -1.05 43.3968 45.4432 58.1632
519 0 3 -1.05 41.2032 39.1568 58.1632
520 0 2 1.575 42.3 38.06 59.26
521 0 3 -1.05 43.3968 51.8768 56.1168
522 0 3 -1.05 41.2032 49.6832 56.1168
523 0 3 -1.05 49.7568 45.5168 56.0432
524 0 3 -1.05 49.7568 47.5632 53.9968
525 0 3 -1.05 51.8032 43.3232 60.2832
526 0 2 1.575 47.6 39.12 58.2
527 0 1 1.05 45.48 39.12 60.32
528 0 2 1.575 47.6 37 60.32
529 0 2 1.575 45.48 37 58.2
530 0 3 -1.05 47.5632 39.0832 60.2832
531 0 3 -1.05 47.5632 37.0368 58.2368
532 0 3 -1.05 45.5168 37.0368 60.2832
533 0 3 -1.05 45.5168 39.0832 58.2368
534 0 3 -1.05 51.8032 41.2768 58.2368
535 0 3 -1.05 49.7568 41.2768 60.2832
536 0 3 -1.05 49.7568 43.3232 58.2368
537 0 2 1.575 49.72 41.24 58.2
538 0 2 1.575 49.72 43.36 60.32
539 0 3 -1.05 51.8032 47.5632 56.0432
540 0 3 -1.05 51.8032 45.5168 53.9968
541 0 1 1.05 51.84 47.6 53.96
542 0 2 1.575 51.84 45.48 56.08
543 0 2 1.575 51.84 41.24 60.32
544 0 2 1.575 47.6 47.6 58.2
545 0 1 1.05 45.48 47.6 60.32
546 0 2 1.575 47.6 45.48 60.32
547 0 2 1.575 45.48 45.48 58.2
548 0 3 -1.05 47.5632 47.5632 60.2832
549 0 3 -1.05 47.5632 45.5168 58.2368
550 0 3 -1.05 45.5168 45.5168 60.2832
551 0 3 -1.05 45.5168 47.5632 58.2368
552 0 2 1.575 51.84 43.36 58.2
553 0 2 1.575 49.72 47.6 56.08
554 0 2 1.575 49.72 45.48 53.96
555 0 2 1.575 52.9 48.66 57.14
556 0 3 -1.05 49.6832 43.3968 53.9232
557 0 3 -1.05 51.8768 41.2032 53.9232
558 0 2 1.575 50.78 42.3 55.02
559 0 3 -1.05 51.8768 43.3968 56.1168
560 0 3 -1.05 49.7568 37.0368 56.0432
561 0 2 1.575 40.18 44.42 57.14
562 0 2 1.575 39.12 41.24 56.08
563 0 2 1.575 37 43.36 56.08
564 0 2 1.575 37 41.24 53.96
565 0 2 1.575 39.12 43.36 53.96
566 0 3 -1.05 37.0368 41.2768 56.0432
567 0 3 -1.05 37.0368 43.3232 53.9968
568 0 3 -1.05 39.0832 43.3232 56.0432
569 0 3 -1.05 39.0832 41.2768 53.9968
570 0 3 -1.05 43.3232 51.8032 60.2832
571 0 3 -1.05 43.3232 49.7568 58.2368
572 0 3 -1.05 41.2768 49.7568 60.2832
573 0 3 -1.05 41.2768 51.8032 58.2368
574 0 1 1.05 41.24 49.72 58.2
575 0 3 -1.05 49.7568 39.0832 53.9968
576 0 3 -1.05 51.8032 39.0832 56.0432
577 0 3 -1.05 51.8032 37.0368 53.9968
578 0 2 1.575 51.84 39.12 53.96
579 0 1 1.05 40.18 52.9 57.14
580 0 2 1.575 39.12 49.72 56.08
581 0 2 1.575 37 51.84 56.08
582 0 2 1.575 37 49.72 53.96
583 0 2 1.575 39.12 51.84 53.96
584 0 3 -1.05 37.0368 49.7568 56.0432
585 0 3 -1.05 37.0368 51.8032 53.9968
586 0 3 -1.05 39.0832 51.8032 56.0432
587 0 3 -1.05 39.0832 49.7568 53.9968
588 0 2 1.575 41.24 51.84 60.32
589 0 2 1.575 43.36 49.72 60.32
590 0 2 1.575 43.36 51.84 58.2
591 0 2 1.575 51.84 37 56.08
592 0 2 1.575 49.72 39.12 56.08
593 0 2 1.575 49.72 37 53.96
594 0 2 1.575 52.9 40.18 57.14
595 0 3 -1.05 49.6832 41.2032 56.1168
596 0 3 -1.05 41.2768 45.5168 56.0432
597 0 2 1.575 48.66 44.42 57.14
598 0 2 1.575 47.6 41.24 56.08
599 0 2 1.575 45.48 43.36 56.08
600 0 2 1.575 45.48 41.24 53.96
601 0 2 1.575 47.6 43.36 53.96
602 0 3 -1.05 45.5168 41.2768 56.0432
603 0 3 -1.05 45.5168 43.3232 53.9968
604 0 3 -1.05 47.5632 43.3232 56.0432
605 0 3 -1.05 47.5632 41.2768 53.9968
606 0 3 -1.05 41.2768 47.5632 53.9968
607 0 3 -1.05 43.3232 47.5632 56.0432
608 0 3 -1.05 43.3232 43.3232 60.2832
609 0 3 -1.05 43.3232 41.2768 58.2368
610 0 3 -1.05 41.2768 41.2768 60.2832
611 0 3 -1.05 43.3232 45.5168 53.9968
612 0 2 1.575 43.36 47.6 53.96
613 0 2 1.575 43.36 45.48 56.08
614 0 2 1.575 41.24 47.6 56.08
615 0 2 1.575 48.66 52.9 57.14
616 0 2 1.575 47.6 49.72 56.08
617 0 2 1.575 45.48 51.84 56.08
618 0 2 1.575 45.48 49.72 53.96
619 0 2 1.575 47.6 51.84 53.96
620 0 3 -1.05 45.5168 49.7568 56.0432
621 0 3 -1.05 45.5168 51.8032 53.9968
622 0 3 -1.05 47.5632 51.8032 56.0432
623 0 3 -1.05 47.5632 49.7568 53.9968
624 0 3 -1.05 41.2768 43.3232 58.2368
625 0 2 1.575 41.24 41.24 58.2
626 0 2 1.575 41.24 43.36 60.32
627 0 2 1.575 43.36 41.24 60.32
628 0 2 1.575 43.36 43.36 58.2
629 0 2 1.575 41.24 45.48 53.96
630 0 2 1.575 44.42 48.66 57.14
631 0 3 -1.05 49.6832 51.8768 53.9232
632 0 3 -1.05 51.8768 49.6832 53.9232
633 0 2 1.575 38.06 42.3 59.26
634 0 3 -1.05 45.4432 41.2032 60.3568
635 0 3 -1.05 39.1568 43.3968 60.3568
636 0 3 -1.05 39.1568 41.2032 58.1632
637 0 3 -1.05 45.4432 43.3968 58.1632
638 0 1 1.05 50.78 50.78 55.02
639 0 3 -1.05 51.8768 51.8768 56.1168
640 0 3 -1.05 49.6832 49.6832 56.1168
641 0 3 -1.05 41.2768 37.0368 56.0432
642 0 3 -1.05 41.2768 39.0832 53.9968
643 0 2 1.575 38.06 50.78 59.26
644 0 3 -1.05 45.4432 49.6832 60.3568
645 0 3 -1.05 39.1568 51.8768 60.3568
646 0 3 -1.05 39.1568 49.6832 58.1632
647 0 3 -1.05 45.4432 51.8768 58.1632
648 0 3 -1.05 43.3232 39.0832 56.0432
649 0 3 -1.05 43.3232 37.0368 53.9968
650 0 2 1.575 43.36 39.12 53.96
651 0 2 1.575 43.36 37 56.08
652 0 2 1.575 41.24 39.12 56.08
653 0 2 1.575 46.54 42.3 59.26
654 0 3 -1.05 47.6368 43.3968 60.3568
655 0 3 -1.05 47.6368 41.2032 58.1632
656 0 2 1.575 41.24 37 53.96
657 0 2 1.575 44.42 40.18 57.14
658 0 3 -1.05 36.9632 51.8768 58.1632
659 0 2 1.575 46.54 50.78 59.26
660 0 3 -1.05 47.6368 51.8768 60.3568
661 0 3 -1.05 47.6368 49.6832 58.1632
662 0 3 -1.05 36.9632 49.6832 60.3568
663 0 3 -1.05 36.9632 43.3968 58.1632
664 0 3 -1.05 36.9632 41.2032 60.3568
665 0 3 -1.05 39.1568 53.9232 45.4432
666 0 3 -1.05 45.4432 53.9232 39.1568
667 0 3 -1.05 45.4432 53.9232 47.6368
668 0 3 -1.05 39.1568 53.9232 36.9632
669 0 2 1.575 38.06 55.02 38.06
670 0 3 -1.05 41.2032 58.1632 47.6368
671 0 3 -1.05 45.4432 56.1168 45.4432
672 0 3 -1.05 43.3968 60.3568 47.6368
673 0 3 -1.05 39.1568 56.1168 39.1568
674 0 2 1.575 38.06 55.02 46.54
675 0 2 1.575 42.3 59.26 46.54
676 0 3 -1.05 39.1568 56.1168 47.6368
677 0 3 -1.05 43.3968 58.1632 45.4432
678 0 3 -1.05 45.4432 56.1168 36.9632
679 0 3 -1.05 41.2032 60.3568 45.4432
680 0 3 -1.05 41.2032 58.1632 39.1568
681 0 3 -1.05 43.3968 60.3568 39.1568
682 0 1 1.05 42.3 59.26 38.06
683 0 3 -1.05 41.2032 60.3568 36.9632
684 0 3 -1.05 43.3968 58.1632 36.9632
685 0 3 -1.05 47.6368 53.9232 45.4432
686 0 3 -1.05 47.6368 53.9232 36.9632
687 0 2 1.575 46.54 55.02 38.06
688 0 3 -1.05 51.8768 56.1168 51.8768
689 0 3 -1.05 47.6368 56.1168 39.1568
690 0 1 1.05 46.54 55.02 46.54
691 0 3 -1.05 47.6368 56.1168 47.6368
692 0 3 -1.05 49.6832 56.1168 49.6832
693 0 2 1.575 50.78 55.02 50.78
694 0 3 -1.05 51.8768 56.1168 43.3968
695 0 3 -1.05 49.6832 56.1168 41.2032
696 0 2 1.575 50.78 55.02 42.3
697 0 3 -1.05 36.9632 53.9232 39.1568
698 0 3 -1.05 36.9632 53.9232 47.6368
699 0 3 -1.05 36.9632 56.1168 45.4432
700 0 3 -1.05 49.6832 53.9232 51.8768
701 0 3 -1.05 51.8768 53.9232 49.6832
702 0 3 -1.05 36.9632 56.1168 36.9632
703 0 3 -1.05 49.6832 53.9232 43.3968
704 0 3 -1.05 51.8768 53.9232 41.2032
705 0 2 1.575 40.18 57.14 44.42
706 0 2 1.575 39.12 56.08 41.24
707 0 2 1.575 37 56.08 43.36
708 0 2 1.575 39.12 53.96 43.36
709 0 2 1.575 37 53.96 41.24
710 0 3 -1.05 39.0832 56.0432 43.3232
711 0 3 -1.05 39.0832 53.9968 41.2768
712 0 3 -1.05 37.0368 53.9968 43.3232
713 0 3 -1.05 37.0368 56.0432 41.2768
714 0 2 1.575 40.18 57.14 52.9
715 0 2 1.575 39.12 56.08 49.72
716 0 2 1.575 37 56.08 51.84
717 0 2 1.575 39.12 53.96 51.84
718 0 2 1.575 37 53.96 49.72
719 0 3 -1.05 39.0832 56.0432 51.8032
720 0 3 -1.05 39.0832 53.9968 49.7568
721 0 3 -1.05 37.0368 53.9968 51.8032
722 0 3 -1.05 37.0368 56.0432 49.7568
723 0 3 -1.05 43.3968 56.1168 51.8768
724 0 3 -1.05 41.2032 56.1168 49.6832
725 0 2 1.575 42.3 55.02 50.78
726 0 3 -1.05 43.3968 56.1168 43.3968
727 0 3 -1.05 51.8032 60.2832 51.8032
728 0 3 -1.05 41.2032 56.1168 41.2032
729 0 2 1.575 42.3 55.02 42.3
730 0 3 -1.05 41.2032 53.9232 51.8768
731 0 3 -1.05 43.3968 53.9232 49.6832
732 0 3 -1.05 51.8032 58.2368 49.7568
733 0 3 -1.05 49.7568 58.2368 51.8032
734 0 3 -1.05 49.7568 60.2832 49.7568
735 0 1 1.05 49.72 58.2 49.72
736 0 2 1.575 49.72 60.32 51.84
737 0 3 -1.05 41.2032 53.9232 43.3968
738 0 3 -1.05 43.3968 53.9232 41.2032
739 0 2 1.575 50.78 59.26 38.06
740 0 3 -1.05 51.8768 60.3568 39.1568
741 0 2 1.575 48.66 57.14 44.42
742 0 2 1.575 47.6 56.08 41.24
743 0 2 1.575 45.48 56.08 43.36
744 0 2 1.575 47.6 53.96 43.36
745 0 2 1.575 45.48 53.96 41.24
746 0 3 -1.05 47.5632 56.0432 43.3232
747 0 3 -1.05 47.5632 53.9968 41.2768
748 0 3 -1.05 45.5168 53.9968 43.3232
749 0 3 -1.05 45.5168 56.0432 41.2768
750 0 2 1.575 48.66 57.14 52.9
751 0 2 1.575 47.6 56.08 49.72
752 0 2 1.575 45.48 56.08 51.84
753 0 2 1.575 47.6 53.96 51.84
754 0 2 1.575 45.48 53.96 49.72
755 0 3 -1.05 47.5632 56.0432 51.8032
756 0 3 -1.05 47.5632 53.9968 49.7568
757 0 3 -1.05 45.5168 53.9968 51.8032
758 0 3 -1.05 45.5168 56.0432 49.7568
759 0 2 1.575 51.84 58.2 51.84
760 0 2 1.575 51.84 60.32 49.72
761 0 3 -1.05 51.8032 60.2832 43.3232
762 0 3 -1.05 51.8032 58.2368 41.2768
763 0 3 -1.05 49.7568 58.2368 43.3232
764 0 3 -1.05 49.6832 58.1632 39.1568
765 0 3 -1.05 49.6832 60.3568 45.4432
766 0 3 -1.05 49.7568 53.9968 47.5632
767 0 3 -1.05 49.7568 56.0432 45.5168
768 0 3 -1.05 49.7568 60.2832 41.2768
769 0 2 1.575 49.72 58.2 41.24
770 0 2 1.575 49.72 60.32 43.36
771 0 2 1.575 51.84 58.2 43.36
772 0 2 1.575 51.84 60.32 41.24
773 0 3 -1.05 51.8032 56.0432 47.5632
774 0 3 -1.05 51.8032 53.9968 45.5168
775 0 2 1.575 51.84 56.08 45.48
776 0 2 1.575 51.84 53.96 47.6
777 0 2 1.575 49.72 56.08 47.6
778 0 2 1.575 39.12 58.2 39.12
779 0 1 1.05 37 60.32 39.12
780 0 2 1.575 37 58.2 37
781 0 2 1.575 39.12 60.32 37
782 0 3 -1.05 37.0368 58.2368 39.0832
783 0 3 -1.05 37.0368 60.2832 37.0368
784 0 3 -1.05 39.0832 60.2832 39.0832
785 0 3 -1.05 39.0832 58.2368 37.0368
786 0 2 1.575 49.72 53.96 45.48
787 0 2 1.575 39.12 58.2 47.6
788 0 2 1.575 37 60.32 47.6
789 0 1 1.05 37 58.2 45.48
790 0 2 1.575 39.12 60.32 45.48
791 0 3 -1.05 37.0368 58.2368 47.5632
792 0 3 -1.05 37.0368 60.2832 45.5168
793 0 3 -1.05 39.0832 60.2832 47.5632
794 0 3 -1.05 39.0832 58.2368 45.5168
795 0 2 1.575 52.9 57.14 48.66
796 0 3 -1.05 49.7568 53.9968 39.0832
797 0 3 -1.05 49.7568 56.0432 37.0368
798 0 3 -1.05 51.8032 56.0432 39.0832
799 0 3 -1.05 51.8032 53.9968 37.0368
800 0 2 1.575 51.84 56.08 37
801 0 2 1.575 51.84 53.96 39.12
802 0 1 1.05 49.72 56.08 39.12
803 0 2 1.575 49.72 53.96 37
804 0 2 1.575 52.9 57.14 40.18
805 0 3 -1.05 43.3232 60.2832 51.8032
806 0 3 -1.05 43.3232 58.2368 49.7568
807 0 3 -1.05 41.2768 58.2368 51.8032
808 0 3 -1.05 41.2768 60.2832 49.7568
809 0 3 -1.05 51.8768 58.1632 45.4432
810 0 2 1.575 50.78 59.26 46.54
811 0 3 -1.05 51.8768 60.3568 47.6368
812 0 3 -1.05 49.6832 58.1632 47.6368
813 0 2 1.575 41.24 58.2 49.72
814 0 2 1.575 47.6 58.2 39.12
815 0 1 1.05 45.48 60.32 39.12
816 0 2 1.575 45.48 58.2 37
817 0 2 1.575 47.6 60.32 37
818 0 3 -1.05 45.5168 58.2368 39.0832
819 0 3 -1.05 45.5168 60.2832 37.0368
820 0 3 -1.05 47.5632 60.2832 39.0832
821 0 3 -1.05 47.5632 58.2368 37.0368
822 0 2 1.575 41.24 60.32 51.84
823 0 2 1.575 47.6 58.2 47.6
824 0 1 1.05 45.48 60.32 47.6
825 0 2 1.575 45.48 58.2 45.48
826 0 2 1.575 47.6 60.32 45.48
827 0 3 -1.05 45.5168 58.2368 47.5632
828 0 3 -1.05 45.5168 60.2832 45.5168
829 0 3 -1.05 47.5632 60.2832 47.5632
830 0 3 -1.05 47.5632 58.2368 45.5168
831 0 1 1.05 43.36 58.2 51.84
832 0 2 1.575 43.36 60.32 49.72
833 0 3 -1.05 43.3232 60.2832 43.3232
834 0 3 -1.05 43.3232 58.2368 41.2768
835 0 3 -1.05 41.2768 58.2368 43.3232
836 0 3 -1.05 49.6832 60.3568 36.9632
837 0 3 -1.05 51.8768 58.1632 36.9632
838 0 3 -1.05 41.2768 53.9968 47.5632
839 0 3 -1.05 41.2768 56.0432 45.5168
840 0 3 -1.05 41.2768 60.2832 41.2768
841 0 1 1.05 41.24 58.2 41.24
842 0 2 1.575 41.24 60.32 43.36
843 0 2 1.575 43.36 58.2 43.36
844 0 2 1.575 43.36 60.32 41.24
845 0 3 -1.05 43.3232 56.0432 47.5632
846 0 3 -1.05 43.3232 53.9968 45.5168
847 0 2 1.575 43.36 56.08 45.48
848 0 2 1.575 43.36 53.96 47.6
849 0 2 1.575 38.06 59.26 42.3
850 0 3 -1.05 45.4432 58.1632 43.3968
851 0 3 -1.05 39.1568 60.3568 43.3968
852 0 3 -1.05 39.1568 58.1632 41.2032
853 0 3 -1.05 45.4432 60.3568 41.2032
854 0 2 1.575 38.06 59.26 50.78