ITEM: TIMESTEP
0
ITEM: NUMBER OF ATOMS
602
ITEM: BOX BOUNDS ff ff ff
-2.2200009999999999e+00 9.9540001000000004e+01
-2.2200009999999999e+00 9.9540001000000004e+01
-2.2200009999999999e+00 9.9540001000000004e+01
ITEM: ATOMS id type c_coord
1 2 4
6 2 4
11 2 4
14 2 4
21 2 4
24 2 4
27 1 4
29 1 4
41 2 4
42 2 4
43 2 0
44 2 0
45 2 0
50 2 4
51 2 0
52 2 0
53 2 0
54 2 0
59 2 4
60 2 0
61 2 0
62 2 0
63 2 0
68 2 4
69 1 0
70 2 0
71 2 0
72 1 0
77 2 4
78 2 0
79 2 0
80 1 0
81 2 0
86 2 4
87 2 0
88 1 0
89 2 0
90 2 0
95 2 4
96 2 0
97 2 0
98 1 0
99 2 0
104 2 4
105 2 0
106 2 0
107 1 0
108 1 0
113 2 4
114 2 4
115 2 0
116 2 0
117 2 0
122 2 4
123 2 0
124 2 0
125 2 0
126 2 0
131 2 4
132 2 0
133 2 0
134 2 0
135 2 0
140 2 4
141 2 0
142 2 0
143 2 0
144 2 0
149 2 4
150 2 0
151 2 0
152 2 0
153 2 0
158 1 4
159 1 0
160 2 0
161 1 0
162 2 0
167 1 4
168 2 0
169 2 0
170 2 0
171 2 0
176 2 4
177 1 0
178 2 0
179 2 0
180 2 0
185 2 4
190 1 4
195 2 4
200 2 4
205 2 4
208 2 4
211 2 4
214 2 4
225 2 4
226 2 0
227 2 4
228 2 0
229 2 0
234 2 4
235 2 0
236 2 0
237 1 0
238 2 0
243 2 4
244 2 0
245 2 0
246 2 0
247 2 0
252 2 4
253 2 0
254 2 0
255 2 0
256 1 0
261 2 4
262 2 0
263 2 0
264 2 0
265 2 0
270 2 4
271 2 0
272 2 0
273 2 0
274 2 0
279 2 4
280 2 0
281 2 0
282 1 0
283 2 0
288 2 4
289 1 0
290 2 0
291 2 0
292 2 0
297 2 4
302 2 4
307 2 4
310 2 4
317 1 4
322 2 4
327 2 4
330 2 4
337 1 4
342 2 4
347 2 4
352 2 4
357 2 4
362 2 4
367 2 4
372 1 4
377 2 4
378 2 0
379 2 0
380 2 0
381 2 0
386 2 4
387 1 0
388 2 0
389 2 0
390 2 0
395 2 4
396 2 0
397 2 0
398 1 0
399 2 0
404 2 4
405 2 0
406 2 0
407 2 0
408 2 0
413 2 4
414 2 0
415 2 0
416 2 0
417 2 0
422 2 4
423 2 0
424 1 0
425 2 0
426 2 0
431 1 4
432 2 0
433 1 0
434 2 0
435 2 0
440 2 4
441 2 0
442 2 0
443 2 0
444 2 0
451 2 4
456 2 4
460 2 4
468 2 4
470 1 4
475 2 4
480 2 4
490 2 0
491 2 0
492 2 0
493 2 0
501 2 0
502 2 0
504 2 4
505 2 4
507 2 0
508 2 0
509 2 0
510 2 0
511 2 0
516 2 0
520 2 4
526 2 0
527 1 0
528 2 0
529 2 0
537 2 0
538 2 0
541 1 0
542 2 0
543 2 0
544 2 0
545 1 0
546 2 0
547 2 0
552 2 0
553 2 0
554 2 0
555 2 4
558 2 4
561 2 4
562 2 0
563 2 0
564 2 0
565 2 0
574 1 0
578 2 0
579 1 4
580 2 0
581 2 0
582 2 0
583 2 0
588 2 0
589 2 0
590 2 0
591 2 0
592 2 0
593 2 0
594 2 4
597 2 4
598 2 0
599 2 0
600 2 0
601 2 0
612 2 0
613 2 0
614 2 0
615 2 4
616 2 0
617 2 0
618 2 0
619 2 0
625 2 0
626 2 0
627 2 0
628 2 0
629 2 0
630 2 4
633 2 4
638 1 4
643 2 4
650 2 0
651 2 0
652 2 0
653 2 4
656 2 0
657 2 4
659 2 4
669 2 4
674 2 4
675 2 4
682 1 4
687 2 4
690 1 4
693 2 4
696 2 4
705 2 4
706 2 0
707 2 0
708 2 0
709 2 0
714 2 4
715 2 0
716 2 0
717 2 0
718 2 0
725 2 4
729 2 4
735 1 0
736 2 0
739 2 4
741 2 4
742 2 0
743 2 0
744 2 0
745 2 0
750 2 4
751 2 0
752 2 0
753 2 0
754 2 0
759 2 0
760 2 0
769 2 0
770 2 0
771 2 0
772 2 0
775 2 0
776 2 0
777 2 0
778 2 0
779 1 0
780 2 0
781 2 0
786 2 0
787 2 0
788 2 0
789 1 0
790 2 0
795 2 4
800 2 0
801 2 0
802 1 0
803 2 0
804 2 4
810 2 4
813 2 0
814 2 0
815 1 0
816 2 0
817 2 0
822 2 0
823 2 0
824 1 0
825 2 0
826 2 0
831 1 0
832 2 0
841 1 0
842 2 0
843 2 0
844 2 0
847 2 0
848 2 0
849 2 4
854 2 4
859 2 0
860 2 0
861 2 4
866 2 0
867 2 0
868 2 0
869 2 4
872 2 4
875 2 0
876 1 4
885 2 4
887 2 4
895 2 0
896 2 0
897 2 0
898 2 0
899 2 4
903 2 4
904 2 4
912 2 0
914 2 0
916 2 0
917 2 0
918 2 4
922 2 4
923 2 0
924 2 0
925 1 0
932 2 4
934 2 4
943 2 0
945 2 4
948 2 0
949 2 0
950 2 0
956 2 0
957 2 0
958 2 0
959 2 0
960 2 0
961 2 0
966 1 0
967 2 0
968 2 4
971 2 0
976 2 0
977 2 0
978 2 0
980 1 4
981 1 0
982 2 0
983 2 4
995 2 4
1000 2 4
1001 2 4
1005 2 4
1008 2 4
1013 2 4
1017 2 4
1025 2 4
1027 1 4
1028 2 0
1029 2 0
1030 2 0
1031 2 0
1036 2 4
1037 2 0
1038 2 0
1039 2 0
1040 2 0
1045 2 4
1046 2 0
1047 2 0
1048 2 0
1049 1 0
1054 2 4
1055 2 0
1056 2 0
1057 2 0
1058 2 0
1064 2 4
1069 2 4
1074 1 4
1078 2 4
1091 2 0
1092 2 0
1093 2 0
1094 2 0
1095 2 0
1096 2 0
1097 2 0
1098 2 0
1099 2 4
1100 1 0
1101 2 0
1102 2 0
1103 2 0
1108 2 4
1109 2 0
1110 2 0
1111 2 0
1112 2 0
1117 2 4
1118 2 0
1119 2 0
1120 2 0
1121 1 0
1126 2 4
1127 1 0
1128 2 0
1129 2 0
1130 2 0
1139 2 0
1144 1 0
1145 2 0
1146 2 0
1149 2 0
1150 1 0
1151 2 0
1152 2 0
1155 1 0
1156 2 0
1157 2 0
1162 2 0
1167 2 0
1168 2 0
1169 2 0
1170 2 0
1179 2 4
1184 2 4
1189 2 4
1190 2 0
1193 2 0
1194 2 4
1195 2 0
1198 2 0
1199 2 0
1200 2 0
1201 2 0
1202 2 0
1206 2 4
1213 2 4
1214 2 4
1222 2 4
1226 2 0
1228 2 0
1229 2 0
1230 1 0
1235 2 0
1236 2 0
1237 2 4
1238 2 0
1241 1 4
1244 2 4
1245 1 0
1246 2 0
1247 2 0
1254 2 4
1257 2 4
1262 2 0
1263 1 0
1264 2 0
1265 2 0
1272 2 4
1279 2 0
1280 2 0
1284 2 0
1285 2 0
1286 2 4
1287 2 0
1289 2 0
1290 1 0
1291 2 0
1292 2 0
1293 2 0
1298 2 0
1299 1 0
1300 2 0
1302 2 0
1303 1 4
1304 2 0
1305 1 4
1318 2 4
1321 2 4
1323 1 4
1326 2 4
1333 2 0
1334 2 0
1335 2 0
1336 2 0
1341 2 0
1342 2 0
1343 2 4
1344 1 0
1345 2 4
1349 2 4
1350 1 0
1351 1 0
1352 1 0
1353 1 0
1358 2 4
1359 1 0
1360 2 0
1361 2 0
1362 2 0
1368 2 4
1371 2 4
1374 2 4
1383 2 0
1384 2 0
1389 2 0
1390 2 0
1391 2 0
1392 1 0
1393 2 0
1400 2 0
1401 2 0
1402 2 0
1405 2 0
1406 2 0
1407 1 0
1408 2 4
1409 2 4
1412 2 0
1419 1 4
1427 2 0
1428 2 0
1429 2 4
1430 2 0
1431 2 0
1435 2 4
1440 2 4
1447 2 0
1448 1 0
1449 2 0
1450 2 0
1451 2 0
1452 2 0
1453 1 0
1454 2 0
1456 2 0
1457 2 0
1458 2 0
1459 2 0
