LAMMPS data file via write_data, version 17 Feb 2022, timestep = 4018

1466 atoms
3 atom types

-2.220001 99.540001 xlo xhi
-2.220001 99.540001 ylo yhi
-2.220001 99.540001 zlo zhi

Masses

1 55.845
2 55.845
3 15.9994

Pair Coeffs # lj/cut/coul/cut

1 9.0298e-07 4.9062
2 9.0298e-07 4.9062
3 0.1554 3.16554

Atoms # full

1 1 2 1.575 37.896911619151815 37.9202624951564 37.885401852812365 0 0 0
2 0 3 -1.05 39.365709441507605 45.4008620802474 45.41699178282518 0 0 0
3 0 3 -1.05 45.593984608628986 39.28675021571767 45.396310944917 0 0 0
4 0 3 -1.05 45.48296978242605 45.47454700619187 39.26318295046481 0 0 0
5 0 3 -1.05 39.24784007531635 39.285314403139395 39.26532072094515 0 0 0
6 1 2 1.575 38.014474046177064 38.09099376750024 46.66444607227838 0 0 0
7 0 3 -1.05 45.45727091003566 45.52764703096557 47.72525253010457 0 0 0
8 0 3 -1.05 39.218661578448554 39.30194651022462 47.751698995693864 0 0 0
9 0 3 -1.05 39.32125859529208 45.49199436796574 37.25692801053768 0 0 0
10 0 3 -1.05 45.52999498147391 39.32822805217084 37.24344910441998 0 0 0
11 1 2 1.575 38.055042922742544 46.6649834515757 38.09859266702203 0 0 0
12 0 3 -1.05 45.46605357931508 47.69680353969403 45.43238047813491 0 0 0
13 0 3 -1.05 39.28124776287603 47.763374268225135 39.246256720651985 0 0 0
14 1 1 1.05 37.80392977294874 46.559123818560906 46.579649157610845 0 0 0
15 0 3 -1.05 39.37917137224758 47.684612274741276 47.80663601902339 0 0 0
16 0 3 -1.05 45.35474149228457 47.71949441373652 37.15854664226921 0 0 0
17 0 3 -1.05 39.179675236009274 37.22572043758836 45.433310697331976 0 0 0
18 0 3 -1.05 45.470016424266746 37.178716452168494 39.360055950295234 0 0 0
19 0 3 -1.05 45.44341101083709 37.26571778771971 47.76923710170343 0 0 0
20 0 3 -1.05 39.4894839709057 37.24092801863451 37.223801356005914 0 0 0
21 1 2 1.575 46.63261143275294 38.03078008539629 38.08726479962069 0 0 0
22 0 3 -1.05 47.64302132557047 45.438560440010384 45.42067844565766 0 0 0
23 0 3 -1.05 47.76520686364237 39.227174382859545 39.33215125707541 0 0 0
24 1 2 1.575 46.55915341076706 38.071377716582056 46.53416119405766 0 0 0
25 0 3 -1.05 47.739999193032304 39.33428395849967 47.54376002281378 0 0 0
26 0 3 -1.05 47.81486653679016 45.38294197421059 37.260633015214815 0 0 0
27 1 2 1.575 46.47780959806167 46.482769450792155 37.96454364102996 0 0 0
28 0 3 -1.05 47.72638782158686 47.63793475810825 39.348063494679664 0 0 0
29 1 2 1.575 46.545598749016605 46.52435142899073 46.53088951141573 0 0 0
30 0 3 -1.05 47.66920429223592 47.677664270328435 47.62992381810644 0 0 0
31 0 3 -1.05 47.79715078883873 37.28374316305209 45.3423711583812 0 0 0
32 0 3 -1.05 47.977932925128435 37.15744440776678 37.17690480246395 0 0 0
33 0 3 -1.05 37.185830466207655 39.354855136634825 45.451276000598924 0 0 0
34 0 3 -1.05 37.24150778293673 45.449502031232086 39.33751304784541 0 0 0
35 0 3 -1.05 37.05797392012153 45.2826339405602 47.816317403478386 0 0 0
36 0 3 -1.05 37.18648580344407 39.484657634056674 37.18767071330597 0 0 0
37 0 3 -1.05 37.155479181006136 47.845867776233824 45.29948683427788 0 0 0
38 0 3 -1.05 37.08256941299008 47.9428349676068 37.17166709770556 0 0 0
39 0 3 -1.05 37.207805075850885 37.272051819482904 39.47241254037069 0 0 0
40 0 3 -1.05 37.020889672289044 37.20273224275514 47.95258046154803 0 0 0
41 1 2 1.575 40.21850714917869 40.298302648541714 44.42750402911994 0 0 0
42 1 2 1.575 37.89354980402754 40.289810411711116 40.282914902966986 0 0 0
43 2 2 1.575 37.19030670532486 39.25704902211992 43.489249168259676 0 0 0
44 2 2 1.575 39.223979822310824 37.282394385631726 43.522358246224115 0 0 0
45 2 2 1.575 37.264463142938766 37.30210117990237 41.331710576409144 0 0 0
46 0 3 -1.05 39.128634236629665 39.214407962938886 43.43845971508355 0 0 0
47 0 3 -1.05 39.192001481653676 37.06523939978711 41.51190005897014 0 0 0
48 0 3 -1.05 37.222988446383134 37.30466064765153 43.235906097387335 0 0 0
49 0 3 -1.05 37.02446169516116 39.21198697921457 41.50765144361974 0 0 0
60 2 1 1.05 39.15361128826165 47.701289301686494 41.27254104983861 0 0 0
61 2 2 1.575 37.213583475465356 47.65960018553735 43.39172175581136 0 0 0
62 2 2 1.575 39.156507337286634 45.49398682058063 43.4236535813562 0 0 0
63 2 2 1.575 37.223193193647845 45.57113636533793 41.26469700139454 0 0 0
64 0 3 -1.05 39.27501627614799 47.478080145842554 43.38519481811725 0 0 0
65 0 3 -1.05 39.299402942452126 45.514666706517325 41.45729514990519 0 0 0
66 0 3 -1.05 37.277915297316824 45.67808252807988 43.246653605501635 0 0 0
67 0 3 -1.05 37.20910895805063 47.478618805119034 41.488823013230736 0 0 0
78 2 2 1.575 47.64200033023046 39.20377048683608 41.261600002413765 0 0 0
79 2 2 1.575 45.507261089855376 39.23058837960601 43.461239277236324 0 0 0
80 2 2 1.575 47.662939844019846 37.2289465290761 43.407061722962275 0 0 0
81 2 2 1.575 45.5689174082099 37.20583927738226 41.282418449694056 0 0 0
82 0 3 -1.05 47.60226732600284 39.27949765776464 43.287869006903435 0 0 0
83 0 3 -1.05 47.52686309933215 37.30818775026775 41.466563765251344 0 0 0
84 0 3 -1.05 45.734431867683675 37.33140038766937 43.2256544005374 0 0 0
85 0 3 -1.05 45.658205000657034 39.31408651139048 41.408859200427216 0 0 0
96 2 2 1.575 47.60774142496995 47.570296831349744 41.293206614878116 0 0 0
97 2 2 1.575 45.48773853233593 47.57563187374751 43.38953128184786 0 0 0
98 2 2 1.575 47.606304057422925 45.47341319378159 43.404453897730704 0 0 0
99 2 1 1.05 45.47245789308335 45.50496611315366 41.270557068561956 0 0 0
100 0 3 -1.05 47.535496816250806 47.52135342595822 43.40692398262332 0 0 0
101 0 3 -1.05 47.64060000342287 45.61359459518662 41.46021733440782 0 0 0
102 0 3 -1.05 45.606815124888634 45.621642835852285 43.481477125241874 0 0 0
103 0 3 -1.05 45.611280341918004 47.62699760660609 41.46358305309598 0 0 0
113 1 2 1.575 40.28987114290163 44.42554060584886 40.26312216367292 0 0 0
114 1 2 1.575 40.33127915140006 40.33192755115866 37.96900338845807 0 0 0
115 2 2 1.575 37.24482515390102 43.48631772846454 39.248285715936575 0 0 0
116 2 2 1.575 37.29181743355875 41.32283894835217 37.28619830333531 0 0 0
117 2 2 1.575 39.25038905709624 43.48465795834993 37.24379323360008 0 0 0
118 0 3 -1.05 37.04453661500425 41.52805662295509 39.18118800418682 0 0 0
119 0 3 -1.05 37.28536982903658 43.24954005872968 37.2701292421459 0 0 0
120 0 3 -1.05 39.17286187763532 43.468283490584994 39.174244854560904 0 0 0
121 0 3 -1.05 39.19137459266027 41.50944788913747 37.08673455979464 0 0 0
123 2 2 1.575 39.19718707836023 41.226373946058274 47.67501487610594 0 0 0
124 2 2 1.575 37.17049494257382 43.38599501367734 47.670379727856755 0 0 0
125 2 2 1.575 37.15664212938505 41.26614644646263 45.568371064478654 0 0 0
126 2 2 1.575 39.10205125655553 43.43627932934848 45.499132911478505 0 0 0
127 0 3 -1.05 37.31673547470264 41.476403639819964 47.49055683177492 0 0 0
128 0 3 -1.05 37.22166759546516 43.23256788214762 45.69557393997115 0 0 0
129 0 3 -1.05 39.2475608215553 43.389729129402426 47.48816221622326 0 0 0
130 0 3 -1.05 39.25340409920568 41.45678383836878 45.59683576695238 0 0 0
150 2 1 1.05 47.633498665435695 41.24311849550406 39.15280344743891 0 0 0
151 2 2 1.575 45.514621463324566 43.41020736147848 39.22938107497544 0 0 0
152 2 2 1.575 45.59954755136775 41.278037478232775 37.221228704779136 0 0 0
153 2 2 1.575 47.66115155683776 43.428143824911835 37.27833911902164 0 0 0
154 0 3 -1.05 45.59941136770987 41.43738424180776 39.27023336152339 0 0 0
155 0 3 -1.05 45.7396622036851 43.30036964981919 37.33345177475566 0 0 0
156 0 3 -1.05 47.568435318154954 43.405335633975504 39.291567978518074 0 0 0
157 0 3 -1.05 47.544702682037006 41.52662098529585 37.20247004254561 0 0 0
159 2 2 1.575 47.556905320959274 41.256121566584596 47.604894333402335 0 0 0
160 2 1 1.05 45.494937640714376 43.353721393829225 47.58883901414374 0 0 0
161 2 1 1.05 45.50350597250075 41.304717516278856 45.53344566246296 0 0 0
162 2 2 1.575 47.58445462162196 43.383808581694815 45.51421620890122 0 0 0
163 0 3 -1.05 45.62924716554848 41.37114360400944 47.60548789485581 0 0 0
164 0 3 -1.05 45.65984071687286 43.46124524640925 45.52871476984816 0 0 0
165 0 3 -1.05 47.6391908550062 43.42609395996055 47.48511342122685 0 0 0
166 0 3 -1.05 47.66468960669289 41.4632901578373 45.59590700895363 0 0 0
185 1 2 1.575 37.95998483120089 42.48770955878847 42.482225638855574 0 0 0
186 0 3 -1.05 45.530568940794765 41.26016107255395 43.486216918923596 0 0 0
187 0 3 -1.05 39.22383256800918 43.50975965531326 43.53188372430083 0 0 0
188 0 3 -1.05 39.05538149475281 41.357573546861616 41.351656888895405 0 0 0
189 0 3 -1.05 45.519452634888964 43.495923310835785 41.2885259479767 0 0 0
205 1 2 1.575 46.55533989852019 42.310278631316244 42.29995138340988 0 0 0
206 0 3 -1.05 47.69981093129213 43.4738632928888 43.45870811427657 0 0 0
207 0 3 -1.05 47.79332022247603 41.26201651659042 41.33142951885177 0 0 0
217 0 3 -1.05 37.13888894304314 41.23338892989246 43.619708920495995 0 0 0
218 0 3 -1.05 37.14958438901592 43.61712376406895 41.212861662885864 0 0 0
225 1 2 1.575 44.45928711822033 40.289713706567596 40.264191968330906 0 0 0
226 2 2 1.575 41.34378012047693 37.29712275221471 37.29923841996617 0 0 0
227 1 2 1.575 40.28578096261072 37.93614512204136 40.29526255014574 0 0 0
228 2 2 1.575 43.501766269821104 37.247349991072966 39.25968799629435 0 0 0
229 2 2 1.575 43.51119649169924 39.26518557658181 37.231240251667586 0 0 0
230 0 3 -1.05 43.27558459240868 37.285665083003515 37.27674807916764 0 0 0
231 0 3 -1.05 43.54436771694569 39.165357837009864 39.166836604138396 0 0 0
232 0 3 -1.05 41.531885380464104 39.1958838413993 37.12040943885737 0 0 0
233 0 3 -1.05 41.52797727906765 37.043763528474045 39.22571997718221 0 0 0
235 2 1 1.05 41.13108010439562 36.79298990119919 45.591978881554745 0 0 0
236 2 1 1.05 41.19458099796021 39.01772993818192 47.56767509578682 0 0 0
237 2 2 1.575 43.4887399129178 37.233858691310246 47.606291333402744 0 0 0
238 2 2 1.575 43.32966763183334 39.08449922330801 45.483764273039974 0 0 0
239 0 3 -1.05 43.5382692743205 37.24043464906255 45.67405308655712 0 0 0
240 0 3 -1.05 43.45732408149377 39.281936516744636 47.41263933531962 0 0 0
241 0 3 -1.05 41.471264645744114 39.49366684188234 45.57863202092632 0 0 0
242 0 3 -1.05 41.622519557452776 37.13271370742619 47.4456759117894 0 0 0
244 2 2 1.575 41.2538059165964 45.56185731082205 37.201818492569345 0 0 0
245 2 2 1.575 41.20606060060551 47.69293921288151 39.21508621309151 0 0 0
246 2 2 1.575 43.40600516575606 45.47494506232763 39.185260113869184 0 0 0
247 2 2 1.575 43.3979172318174 47.64809829047254 37.24002781169105 0 0 0
248 0 3 -1.05 43.26176935683593 45.70318330207127 37.2967748858845 0 0 0
249 0 3 -1.05 43.392362560687495 47.48347644137274 39.291893389116794 0 0 0
250 0 3 -1.05 41.48772959896829 47.491641699268506 37.33721261178772 0 0 0
251 0 3 -1.05 41.423353357316 45.62021092186548 39.29806184393119 0 0 0
253 2 2 1.575 41.26567657378268 45.46112744744057 45.50749653687038 0 0 0
254 2 2 1.575 41.24704057623628 47.609804350724886 47.629546091010226 0 0 0
255 2 2 1.575 43.41993940211408 45.46882157685157 47.60712716407237 0 0 0
256 2 2 1.575 43.3783316236238 47.587124989614445 45.49691129033964 0 0 0
257 0 3 -1.05 43.4376429474598 45.6105010017453 45.597182512300456 0 0 0
258 0 3 -1.05 43.46222103327534 47.50922324014941 47.48406309632652 0 0 0
259 0 3 -1.05 41.43687557507384 47.55413937463612 45.609329696197875 0 0 0
260 0 3 -1.05 41.45841715941155 45.616635347911156 47.540807142779876 0 0 0
297 1 2 1.575 42.44565175976041 38.051788354627845 42.498744313072905 0 0 0
298 0 3 -1.05 41.34929810712901 39.174380399270404 41.335961119640686 0 0 0
299 0 3 -1.05 43.462595299519414 45.434305021856105 41.32906193234371 0 0 0
300 0 3 -1.05 43.53088157822267 39.33410402775097 43.51693889034305 0 0 0
301 0 3 -1.05 41.34622002656683 45.51445273552481 43.56966560324629 0 0 0
307 1 2 1.575 42.26522380506083 46.533883426264545 42.290353066307645 0 0 0
308 0 3 -1.05 41.34197828168865 47.735767659866795 41.21928472034934 0 0 0
309 0 3 -1.05 43.497307915766086 47.68805782795008 43.50595049934064 0 0 0
313 0 3 -1.05 43.62967668659296 37.260960108880866 41.24135942456968 0 0 0
314 0 3 -1.05 41.179113644270316 37.21187692021949 43.58326061270762 0 0 0
337 1 1 1.05 42.4603616191381 42.44043627984041 37.96389459984801 0 0 0
338 0 3 -1.05 43.57596030785655 43.55718584451999 39.395264967382765 0 0 0
339 0 3 -1.05 41.317378036786614 41.290727024127165 39.24911616697701 0 0 0
340 0 3 -1.05 41.36288466326895 43.531693545086675 45.51328160275546 0 0 0
341 0 3 -1.05 43.50132772822475 41.40496953356562 45.35932384122253 0 0 0
342 1 2 1.575 42.31450501107302 42.26090975993093 46.562118746751814 0 0 0
343 0 3 -1.05 43.43438955690287 43.52799877160474 47.69056257203248 0 0 0
344 0 3 -1.05 41.22488772329854 41.3839655234276 47.78040355665118 0 0 0
345 0 3 -1.05 41.16661077612186 43.661394027175554 37.11421807743966 0 0 0
346 0 3 -1.05 43.69562688360332 41.169107843711586 37.09526637370338 0 0 0
377 1 2 1.575 44.43099153301116 44.39887338260156 44.443695892007554 0 0 0
378 2 2 1.575 43.36300331264911 43.36570192079087 41.316502975700026 0 0 0
379 2 2 1.575 43.33600668733838 41.311136545263864 43.415989384046526 0 0 0
380 2 1 1.05 41.239917223613766 43.35172055765302 43.366693213972106 0 0 0
381 2 2 1.575 40.945069615414454 41.092412894277885 41.11251203011055 0 0 0
382 0 3 -1.05 41.429339272630244 43.36721067488314 41.35127318122817 0 0 0
383 0 3 -1.05 41.38625883466207 41.34570060704581 43.31723556215108 0 0 0
384 0 3 -1.05 43.561325160897944 41.43553495284976 41.47550249535557 0 0 0
385 0 3 -1.05 43.42751840359303 43.33908285787967 43.309358436750394 0 0 0
77 1 2 1.575 48.63850427352756 40.292299810959335 44.45400102326969 0 0 0
59 1 2 1.575 40.213372348053056 48.63779878791886 44.4805946827675 0 0 0
122 1 2 1.575 40.235540667887946 44.47227754870413 48.644451631627646 0 0 0
234 1 2 1.575 44.4463248188678 40.252778910282 48.64682538795277 0 0 0
50 1 2 1.575 40.31715916655041 40.29952053381191 52.90886848874355 0 0 0
51 2 2 1.575 39.251775488542904 39.11645628904227 49.75675961343665 0 0 0
52 2 2 1.575 37.29791096544754 39.22663658468242 51.95983769843874 0 0 0
53 2 1 1.05 39.187940611968216 37.080800926921754 51.96203763948458 0 0 0
54 2 2 1.575 37.21339114402699 37.30933490081082 49.78729016979103 0 0 0
55 0 3 -1.05 39.27144353047677 39.313789964765874 51.74390599811861 0 0 0
56 0 3 -1.05 39.112765001695486 37.239410566846715 49.94794368478353 0 0 0
57 0 3 -1.05 37.12709486481318 37.32795543874721 51.70128706943058 0 0 0
58 0 3 -1.05 37.32598693510121 39.238208322148225 49.99489091619057 0 0 0
69 2 2 1.575 38.94626909356064 47.63649054169476 49.709828223250376 0 0 0
70 2 1 1.05 36.90159606468491 47.55738654833 51.85886873881097 0 0 0
71 2 2 1.575 39.12441780724049 45.48992253070568 51.864697451799444 0 0 0
72 2 2 1.575 37.089479508828155 45.433569177873395 49.73446416378556 0 0 0
73 0 3 -1.05 39.4172766571845 47.4831996136485 51.617558706491224 0 0 0
74 0 3 -1.05 39.265562053856435 45.62693167236886 49.75016589765064 0 0 0
75 0 3 -1.05 37.2735782716088 45.57290970746902 51.63387333031296 0 0 0
76 0 3 -1.05 37.11771292040834 47.374150039192514 49.82351522046129 0 0 0
87 2 1 1.05 47.64004821216852 39.02414775119645 49.7705689292994 0 0 0
88 2 2 1.575 45.490623297989714 39.1599030740958 51.83205234027242 0 0 0
89 2 1 1.05 47.59665463368304 36.98570379389679 51.79978509254955 0 0 0
90 2 2 1.575 45.51288874364377 37.21341747931833 49.71365025061907 0 0 0
91 0 3 -1.05 47.45152901184602 39.45438032700166 51.736142455655546 0 0 0
92 0 3 -1.05 47.42067286273714 37.114636208726274 49.79407630729617 0 0 0
93 0 3 -1.05 45.61238980318171 37.30299935737214 51.62653115685121 0 0 0
94 0 3 -1.05 45.58540745128201 39.340954962978394 49.80824559547688 0 0 0
105 2 2 1.575 47.65264988032181 47.6262409682437 49.73345565248482 0 0 0
106 2 2 1.575 45.495104354237654 47.58663850416456 51.86551059328298 0 0 0
107 2 2 1.575 47.58935610344089 45.471731463998594 51.875395619685406 0 0 0
108 2 2 1.575 45.5125491278556 45.458155032941015 49.72307405673172 0 0 0
109 0 3 -1.05 47.57196843067611 47.564159924338796 51.72164596937659 0 0 0
110 0 3 -1.05 47.54834603850375 45.611791268602836 49.740786021877085 0 0 0
111 0 3 -1.05 45.646902701295275 45.64278894619536 51.69199026563258 0 0 0
112 0 3 -1.05 45.629187417626525 47.56793500237843 49.753311570304724 0 0 0
630 1 2 1.575 44.43198594852916 48.620439542491624 57.11781203690816 0 0 0
190 1 2 1.575 38.08082201456439 42.28910586797612 50.82136408442796 0 0 0
191 0 3 -1.05 45.44160571262626 41.34451818479789 51.95105512667997 0 0 0
192 0 3 -1.05 39.3441800378149 43.5063931310575 51.78123847478529 0 0 0
193 0 3 -1.05 39.35879248589942 41.341941199280434 49.672318693330006 0 0 0
194 0 3 -1.05 45.44845665342589 43.51436599019653 49.71832581791866 0 0 0
208 1 2 1.575 46.530367279597776 42.288856052973244 50.779959672535085 0 0 0
209 0 3 -1.05 47.671903716330334 43.51150834480865 51.79266024838095 0 0 0
210 0 3 -1.05 47.744075268490356 41.48727939324943 49.56978961079487 0 0 0
219 0 3 -1.05 37.22644096123646 41.19635189382553 52.05395891687885 0 0 0
220 0 3 -1.05 37.289780301948625 43.485747357411675 49.61687068546164 0 0 0
252 1 2 1.575 44.4299614118737 48.64659019434017 48.66615515585557 0 0 0
302 1 2 1.575 42.30612852454203 38.02397094523381 50.78316576586218 0 0 0
303 0 3 -1.05 41.28490221301652 39.3143704368578 49.7265767229118 0 0 0
304 0 3 -1.05 43.53416490976285 45.50252943579966 49.62899530589883 0 0 0
305 0 3 -1.05 43.488792348441194 39.2596925581717 51.89503007097554 0 0 0
306 0 3 -1.05 41.30618669745554 45.428180874887474 51.88703987356766 0 0 0
310 1 2 1.575 42.35175290867621 46.53307363279096 50.81011707610395 0 0 0
311 0 3 -1.05 41.52557747946043 47.712631270598955 49.592289268219176 0 0 0
312 0 3 -1.05 43.549052716569236 47.706031803200965 51.78491818536287 0 0 0
315 0 3 -1.05 43.57772839299565 37.361540308260146 49.56503255587343 0 0 0
316 0 3 -1.05 41.26426994335837 37.19023276156135 52.05661344902563 0 0 0
386 1 2 1.575 44.20791504707762 44.222786543457964 53.07903958561983 0 0 0
387 2 2 1.575 43.39340295855341 43.359907499828 49.69977223194478 0 0 0
388 2 1 1.05 43.36758100079091 41.254687412984545 51.84384250923149 0 0 0
389 2 2 1.575 41.26439921983873 43.38858834704113 51.82590499432229 0 0 0
390 2 2 1.575 41.30815850239162 41.223757239109304 49.73415814209882 0 0 0
391 0 3 -1.05 41.44025187526764 43.47426996125759 49.75883092331035 0 0 0
392 0 3 -1.05 41.35540126597977 41.45036474580064 51.70418843248061 0 0 0
393 0 3 -1.05 43.34225111225013 41.441327951519895 49.67828378276184 0 0 0
394 0 3 -1.05 43.32270146440019 43.43618621777159 51.64585663455989 0 0 0
449 0 3 -1.05 39.34816430973653 45.537776868643455 53.82563726796488 0 0 0
450 0 3 -1.05 45.4386493754594 39.32787096445848 53.87094837070961 0 0 0
451 1 2 1.575 38.02207228686626 38.056092632487726 55.096736205028556 0 0 0
452 0 3 -1.05 41.16109712728659 41.14793110582749 56.18491020056386 0 0 0
453 0 3 -1.05 43.53268233940137 43.465587990549515 56.08696638721797 0 0 0
454 0 3 -1.05 45.479292526630275 45.3769351191824 56.05248493557246 0 0 0
455 0 3 -1.05 39.250454701789465 39.26176895865488 56.12221939382972 0 0 0
456 1 1 1.05 42.255489320367076 42.285378001711436 55.037957436586936 0 0 0
457 0 3 -1.05 43.53815268549931 41.26330871959404 53.87366986265649 0 0 0
458 0 3 -1.05 41.39482487863747 43.55977939290951 53.757369248483016 0 0 0
459 0 3 -1.05 45.562122785382535 47.706508277714676 53.81436959564344 0 0 0
460 1 2 1.575 38.08851583031909 46.49863974150181 55.00190451916483 0 0 0
462 0 3 -1.05 39.33984194942311 47.65384951227833 56.0315359668118 0 0 0
465 0 3 -1.05 39.32436492384069 37.276940473765436 53.95145078431083 0 0 0
467 0 3 -1.05 45.275749801871136 37.237644200896796 56.13994505332116 0 0 0
469 0 3 -1.05 47.67254669901109 45.542577805868135 53.8396895392122 0 0 0
470 1 2 1.575 46.48028509492747 38.04931724949321 54.962194782657825 0 0 0
472 0 3 -1.05 47.61335761468352 39.358981310555585 55.97797602028105 0 0 0
475 1 2 1.575 46.51124648705499 46.54402341471394 55.03078089286329 0 0 0
476 0 3 -1.05 47.70450142382783 47.71271903342828 55.91809755897864 0 0 0
479 0 3 -1.05 47.75592388534253 37.31070320641934 53.82736893030893 0 0 0
481 0 3 -1.05 37.24235350604568 39.32660024690865 53.88324169754187 0 0 0
482 0 3 -1.05 41.08555072170118 36.85772191781717 60.489462593396844 0 0 0
483 0 3 -1.05 37.251212147972005 45.26908595613101 56.12357270427436 0 0 0
484 0 3 -1.05 43.44827900990731 37.201311843636596 58.05141972623606 0 0 0
485 0 3 -1.05 37.32303756638348 47.734040780936326 53.84173701329164 0 0 0
487 0 3 -1.05 36.97556189793899 37.05739225668541 56.27009553133467 0 0 0
488 0 3 -1.05 43.47952581721593 47.7447842373899 59.929103416162434 0 0 0
490 2 2 1.575 39.1398231465015 39.091609818001395 58.20397469769165 0 0 0
491 2 2 1.575 37.155262110621024 39.21948298931262 60.17241755062912 0 0 0
492 2 1 1.05 39.15034735424075 37.09586123408204 60.23478902321204 0 0 0
493 2 2 1.575 37.13345156417674 37.166664857094965 58.11683814980168 0 0 0
494 0 3 -1.05 39.03862484744534 39.112857140464406 60.13443796988609 0 0 0
495 0 3 -1.05 39.01561224100208 37.17365858880562 58.226449497540685 0 0 0
496 0 3 -1.05 37.049223066919104 37.24981567336848 60.107028117300594 0 0 0
497 0 3 -1.05 37.16940336877776 39.07943459766001 58.26369222341714 0 0 0
503 0 3 -1.05 41.253337995520475 47.552877227732466 57.96434500225683 0 0 0
504 1 2 1.575 42.27541482348461 46.50108085940647 59.247894398895134 0 0 0
506 0 3 -1.05 41.180201585015055 45.266007035157095 60.12856365506629 0 0 0
508 2 2 1.575 39.22827368690746 47.59242226087988 58.11655610353551 0 0 0
509 2 2 1.575 37.26737352912659 47.5194928606888 60.04453847055974 0 0 0
510 2 2 1.575 39.2295612103862 45.34719262656277 60.07722800365378 0 0 0
511 2 2 1.575 37.23609720725775 45.34631190961582 58.064116222181326 0 0 0
512 0 3 -1.05 39.185553910186435 47.28382162973484 60.024677685070564 0 0 0
513 0 3 -1.05 39.257153006477914 45.49915005783455 58.06863471513241 0 0 0
514 0 3 -1.05 37.28461651060738 45.56184659292075 60.02437866418374 0 0 0
515 0 3 -1.05 37.31002907855432 47.28646037559307 58.12889930958389 0 0 0
517 0 3 -1.05 43.4460511764915 39.28945695191025 60.11210062150323 0 0 0
518 0 3 -1.05 43.45181931704623 45.41785516725103 58.07074696306144 0 0 0
519 0 3 -1.05 41.18521179715485 39.24463433428909 58.06500479574886 0 0 0
520 1 2 1.575 42.2080092160858 37.85510151982066 59.460230897744076 0 0 0
526 2 2 1.575 47.57076544933596 39.219124580012895 58.09658416012956 0 0 0
527 2 2 1.575 45.3713241514604 39.26045549879239 60.090664008977164 0 0 0
528 2 2 1.575 47.5837086918597 37.28021674332357 60.059432534419614 0 0 0
529 2 2 1.575 45.37343056476824 37.217525904693915 58.07213285522323 0 0 0
530 0 3 -1.05 47.326777843848106 39.206775683207844 60.01430861458693 0 0 0
531 0 3 -1.05 47.3272822398213 37.308504835222315 58.138001287627596 0 0 0
532 0 3 -1.05 45.60410251699703 37.31114441461904 60.029007657750036 0 0 0
533 0 3 -1.05 45.539043450900124 39.275164829454525 58.05919014244762 0 0 0
544 2 2 1.575 47.59285133884843 47.64745638183448 58.28491405951047 0 0 0
545 2 1 1.05 45.44874293041474 47.57946205641568 60.379267831080696 0 0 0
546 2 2 1.575 47.59439133932692 45.483380588352716 60.14827889285624 0 0 0
547 2 2 1.575 45.40685911551781 45.51395234189742 58.164555738700294 0 0 0
548 0 3 -1.05 47.5103153690775 47.393464463392505 60.12686905835501 0 0 0
549 0 3 -1.05 47.55295585281537 45.616259704193205 58.04248114794934 0 0 0
550 0 3 -1.05 45.69274990596723 45.575440988721034 60.02006499790075 0 0 0
551 0 3 -1.05 45.668034112043145 47.46607194454473 57.889508375672136 0 0 0
561 1 2 1.575 40.30298557925227 44.391178158929236 56.987710129640156 0 0 0
562 2 2 1.575 39.15097189072074 41.22144171234808 56.07739976083737 0 0 0
563 2 2 1.575 37.21398003070179 43.32444738268724 56.04897389156566 0 0 0
564 2 2 1.575 37.20912860333804 41.25317156498352 53.98322905453945 0 0 0
565 2 1 1.05 39.11510108851705 43.39151671914047 53.90568180273485 0 0 0
566 0 3 -1.05 37.2704684854562 41.41720141770429 55.89671732429177 0 0 0
567 0 3 -1.05 37.16830354566657 43.20327263082469 54.11346033588845 0 0 0
568 0 3 -1.05 39.23721579164769 43.26687341946899 55.965381321570376 0 0 0
569 0 3 -1.05 39.258957774071455 41.35002642347501 54.03602163412718 0 0 0
596 0 3 -1.05 41.32657341795656 45.5937029231117 55.88579181193921 0 0 0
598 2 2 1.575 47.55829770048963 41.3247659989119 56.0047178005991 0 0 0
599 2 2 1.575 45.465453451473124 43.39921329248328 56.04908171121397 0 0 0
600 2 2 1.575 45.47007327071606 41.284230085391876 53.92835809458252 0 0 0
601 2 1 1.05 47.56702210482526 43.39073111697107 53.94939331422408 0 0 0
602 0 3 -1.05 45.568263559536575 41.408975150639144 55.937658192390934 0 0 0
603 0 3 -1.05 45.53465744842718 43.32763433730744 54.02039199082347 0 0 0
604 0 3 -1.05 47.49429454327034 43.3738361369026 55.97386899276876 0 0 0
605 0 3 -1.05 47.49648627070737 41.37814191052176 53.99499913835542 0 0 0
606 0 3 -1.05 41.350621566809274 47.55353196264985 53.94513689655337 0 0 0
607 0 3 -1.05 43.33132420501058 47.61328521293843 55.9594465481749 0 0 0
608 0 3 -1.05 43.218945963111935 43.22340450846279 60.04051506974106 0 0 0
609 0 3 -1.05 43.295878215710935 41.411780134644694 58.07892864302502 0 0 0
610 0 3 -1.05 41.43016124597042 41.44448799450162 60.04327104519618 0 0 0
611 0 3 -1.05 43.31332289215517 45.60308207043826 53.91377390900629 0 0 0
612 2 1 1.05 43.36394520946031 47.60098828692866 53.97027369981666 0 0 0
613 2 1 1.05 43.35420902071293 45.504065073990105 56.03663654650199 0 0 0
614 2 2 1.575 41.31578460851711 47.58306271576449 56.023387594876795 0 0 0
624 0 3 -1.05 41.40323977291441 43.323206073320904 58.06757173531868 0 0 0
625 2 2 1.575 41.194793670539994 41.19654760951218 58.16938163326075 0 0 0
626 2 2 1.575 41.23000117005983 43.33922760029956 60.11306060073705 0 0 0
627 2 2 1.575 43.3231377824644 41.24967777382433 60.1300909339243 0 0 0
628 2 2 1.575 43.36423250790713 43.416137723822615 58.134259070819994 0 0 0
629 2 2 1.575 41.286495865694825 45.49914161621528 53.93782124846377 0 0 0
633 1 2 1.575 38.02881041326291 42.20724093914534 59.243744711729256 0 0 0
634 0 3 -1.05 45.27004453266013 41.204005740750695 60.09152475531411 0 0 0
635 0 3 -1.05 39.30476944219358 43.43259443440018 60.0455969250546 0 0 0
636 0 3 -1.05 39.25577715186744 41.22268053593157 58.06163688057723 0 0 0
637 0 3 -1.05 45.435786358055786 43.465302950479156 58.01880146348492 0 0 0
641 0 3 -1.05 41.439681864051764 37.27397760702874 55.877095288963595 0 0 0
642 0 3 -1.05 41.42924893361236 39.28047099674781 54.01856558012182 0 0 0
648 0 3 -1.05 43.3043627870424 39.25086232485616 55.925022718013004 0 0 0
649 0 3 -1.05 43.24688636747888 37.28430884067787 54.12052990068665 0 0 0
650 2 2 1.575 43.37858979828393 39.17234491217594 53.89680234716238 0 0 0
651 2 2 1.575 43.324947567835586 37.18811056785753 56.07759108120017 0 0 0
652 2 2 1.575 41.192708926233365 39.1425481985073 56.091549086820834 0 0 0
653 1 2 1.575 46.49466510018288 42.35283787605528 59.27245360630234 0 0 0
654 0 3 -1.05 47.74032173382553 43.54277634932732 60.02787092030575 0 0 0
655 0 3 -1.05 47.61301404205238 41.37283553375618 57.97222612145602 0 0 0
656 2 2 1.575 41.21936262152938 37.19630177089101 53.955841581342995 0 0 0
657 1 2 1.575 44.37285823755345 40.31203934700119 57.018518985999 0 0 0
663 0 3 -1.05 37.22218372342226 43.436390955483915 57.99547395675849 0 0 0
664 0 3 -1.05 37.00086536948196 41.071528745028225 60.29572392256688 0 0 0
86 1 2 1.575 48.61990691406756 40.25515411488979 52.924473656328786 0 0 0
597 1 2 1.575 48.62973343975234 44.457863228526364 57.04874481672527 0 0 0
68 1 2 1.575 40.197137317672485 48.624616323231955 52.86293294076727 0 0 0
741 1 2 1.575 48.64936773281482 57.05579150078398 44.413790437959605 0 0 0
131 1 2 1.575 40.309113315996356 52.865920188019615 40.28831704538064 0 0 0
132 2 2 1.575 39.149895332664464 49.74012649796408 39.234639832744975 0 0 0
133 2 2 1.575 37.19114142448828 51.99885756247863 39.216094111653256 0 0 0
134 2 2 1.575 37.17699713631 49.77705075144375 37.29271409255265 0 0 0
135 2 2 1.575 39.166441594746715 51.92685539887962 37.19984004004429 0 0 0
136 0 3 -1.05 37.22427210230101 50.05262728880265 39.19729591653763 0 0 0
137 0 3 -1.05 37.21526829386676 51.744756437414296 37.27365202079461 0 0 0
138 0 3 -1.05 39.2093465472765 51.79458395661535 39.2306172351096 0 0 0
139 0 3 -1.05 39.08823779406262 49.99056066597418 37.297420280325625 0 0 0
141 2 1 1.05 39.006304152842354 49.67136312083379 47.65187084302812 0 0 0
142 2 2 1.575 37.23854784333709 51.853610863160995 47.56804890228867 0 0 0
143 2 2 1.575 37.169609269856316 49.75841146162055 45.44680177031381 0 0 0
144 2 2 1.575 39.18773077172046 51.831199698934974 45.489911346135585 0 0 0
145 0 3 -1.05 37.101749080237894 49.94929861842684 47.37637426176682 0 0 0
146 0 3 -1.05 37.31009595357721 51.72000896579284 45.598410410621106 0 0 0
147 0 3 -1.05 39.26452709198191 51.72389867195911 47.45133479952278 0 0 0
148 0 3 -1.05 39.27913882342448 49.832420702006196 45.55138436100317 0 0 0
168 2 2 1.575 47.63095329457349 49.647861534859196 39.125644403733645 0 0 0
169 2 1 1.05 45.3969584736663 51.94354934711355 39.01908008045935 0 0 0
170 2 2 1.575 45.494533146550985 49.663060231314866 37.20172892169015 0 0 0
171 2 2 1.575 47.603884571843096 51.80593782588243 37.198888813627065 0 0 0
172 0 3 -1.05 45.681182999856595 49.61478651194357 39.28412604574945 0 0 0
173 0 3 -1.05 45.71404276255756 51.547337421242084 37.15614075139711 0 0 0
174 0 3 -1.05 47.5988373277186 51.58438683533373 39.28813224204097 0 0 0
175 0 3 -1.05 47.47787342661827 49.755384966940944 37.261638214567995 0 0 0
177 2 2 1.575 47.62650654652716 49.71969327883384 47.63646197306317 0 0 0
178 2 2 1.575 45.4876544710937 51.89544272242972 47.608232972486185 0 0 0
179 2 2 1.575 45.48736066206959 49.72035451075125 45.502431510978035 0 0 0
180 2 2 1.575 47.59384300186903 51.8364136676564 45.49585023509748 0 0 0
181 0 3 -1.05 45.592333263794764 49.69061838046062 47.50409843882731 0 0 0