LAMMPS data file. CGCMM style. atom_style charge generated by VMD/TopoTools v1.8 on Fri Apr 02 11:45:26 CEST 2021
 903 atoms
 3 atom types
 0 improper types
 -25.000000 25.000000  xlo xhi
 -25.000000 25.000000  ylo yhi
 -25.000000 25.000000  zlo zhi

 Pair Coeffs

 1  0.00673881 3.16554
 2  3.91428e-07 4.07222
 3  3.91428e-07 4.07222

 Masses

 1 15.999400 # 1
 2 55.845001 # 2
 3 55.845001

 Atoms # charge

1 1 -1.050000 -11.770500 -3.237100 3.237000 # 1
2 1 -1.050000 -11.770400 -1.029600 1.029500 # 1
3 1 -1.050000 -11.770400 1.029500 -1.029600 # 1
4 1 -1.050000 -11.770400 3.237000 -3.237000 # 1
5 2 1.050000 -11.733300 -5.333300 3.200000 # 2
6 2 1.050000 -11.733300 -3.200000 -3.200000 # 2
7 2 1.050000 -11.733300 -3.200000 5.333300 # 2
8 2 1.050000 -11.733300 -1.066600 -1.066600 # 2
9 2 1.050000 -11.733300 1.066600 1.066600 # 2
10 2 1.050000 -11.733300 3.200000 -5.333300 # 2
11 2 1.050000 -11.733300 3.200000 3.200000 # 2
12 2 1.050000 -11.733300 5.333300 -3.200000 # 2
13 1 -1.050000 -11.696200 -5.370400 1.103700 # 1
14 1 -1.050000 -11.696200 -3.162900 -1.103700 # 1
15 1 -1.050000 -11.696200 -1.103700 -3.162900 # 1
16 1 -1.050000 -11.696200 -1.103700 5.370300 # 1
17 1 -1.050000 -11.696200 1.103700 -5.370400 # 1
18 1 -1.050000 -11.696200 1.103700 3.162800 # 1
19 1 -1.050000 -11.696200 3.162800 1.103700 # 1
20 1 -1.050000 -11.696200 5.370300 -1.103700 # 1
21 2 1.050000 -10.666600 -6.400000 -2.133300 # 2
22 2 1.050000 -10.666600 -2.133300 -6.400000 # 2
23 2 1.050000 -10.666600 -2.133300 2.133300 # 2
24 2 1.050000 -10.666600 2.133300 -2.133300 # 2
25 2 1.050000 -10.666600 2.133300 6.400000 # 2
26 2 1.050000 -10.666600 6.400000 2.133300 # 2
27 1 -1.050000 -9.637100 -7.429600 1.103700 # 1
28 1 -1.050000 -9.637100 -5.370400 -5.370400 # 1
29 1 -1.050000 -9.637100 -5.370400 3.162800 # 1
30 1 -1.050000 -9.637100 -3.162900 -3.162900 # 1
31 1 -1.050000 -9.637100 -3.162900 5.370300 # 1
32 1 -1.050000 -9.637100 -1.103700 -1.103700 # 1
33 1 -1.050000 -9.637100 -1.103700 7.429500 # 1
34 1 -1.050000 -9.637100 1.103700 -7.429600 # 1
35 1 -1.050000 -9.637100 1.103700 1.103700 # 1
36 1 -1.050000 -9.637100 3.162800 -5.370400 # 1
37 1 -1.050000 -9.637100 3.162800 3.162800 # 1
38 1 -1.050000 -9.637100 5.370300 -3.162900 # 1
39 1 -1.050000 -9.637100 5.370300 5.370300 # 1
40 1 -1.050000 -9.637100 7.429500 -1.103700 # 1
41 2 1.050000 -9.600000 -7.466600 -5.333300 # 2
42 2 1.050000 -9.600000 -7.466600 3.200000 # 2
43 2 1.050000 -9.600000 -5.333300 -7.466600 # 2
44 2 1.050000 -9.600000 -5.333300 1.066600 # 2
45 2 1.050000 -9.600000 -3.200000 -1.066600 # 2
46 2 1.050000 -9.600000 -3.200000 7.466600 # 2
47 2 1.050000 -9.600000 -1.066600 -3.200000 # 2
48 2 1.050000 -9.600000 -1.066600 5.333300 # 2
49 2 1.050000 -9.600000 1.066600 -5.333300 # 2
50 2 1.050000 -9.600000 1.066600 3.200000 # 2
51 2 1.050000 -9.600000 3.200000 -7.466600 # 2
52 2 1.050000 -9.600000 3.200000 1.066600 # 2
53 2 1.050000 -9.600000 5.333300 -1.066600 # 2
54 2 1.050000 -9.600000 5.333300 7.466600 # 2
55 2 1.050000 -9.600000 7.466600 -3.200000 # 2
56 2 1.050000 -9.600000 7.466600 5.333300 # 2
57 1 -1.050000 -9.562800 -7.503800 -3.237000 # 1
58 1 -1.050000 -9.562800 -7.503800 5.296100 # 1
59 1 -1.050000 -9.562800 -5.296300 -1.029600 # 1
60 1 -1.050000 -9.562800 -5.296300 7.503700 # 1
61 1 -1.050000 -9.562800 -3.237000 -7.503800 # 1
62 1 -1.050000 -9.562800 -3.237000 1.029500 # 1
63 1 -1.050000 -9.562800 -1.029600 -5.296300 # 1
64 1 -1.050000 -9.562800 -1.029600 3.237000 # 1
65 1 -1.050000 -9.562800 1.029500 -3.237000 # 1
66 1 -1.050000 -9.562800 1.029500 5.296100 # 1
67 1 -1.050000 -9.562800 3.237000 -1.029600 # 1
68 1 -1.050000 -9.562800 3.237000 7.503700 # 1
69 1 -1.050000 -9.562800 5.296100 -7.503800 # 1
70 1 -1.050000 -9.562800 5.296100 1.029500 # 1
71 1 -1.050000 -9.562800 7.503700 -5.296300 # 1
72 1 -1.050000 -9.562800 7.503700 3.237000 # 1
73 2 1.050000 -8.533300 -8.533300 0.000000 # 2
74 2 1.050000 -8.533300 -4.266600 -4.266600 # 2
75 2 1.050000 -8.533300 -4.266600 4.266600 # 2
76 2 1.050000 -8.533300 0.000000 -8.533300 # 2
77 2 1.050000 -8.533300 0.000000 0.000000 # 2
78 2 1.050000 -8.533300 0.000000 8.533300 # 2
79 2 1.050000 -8.533300 4.266600 -4.266600 # 2
80 2 1.050000 -8.533300 4.266600 4.266600 # 2
81 2 1.050000 -8.533300 8.533300 0.000000 # 2
82 1 -1.050000 -7.503800 -9.562800 -3.237000 # 1
83 1 -1.050000 -7.503800 -9.562800 5.296100 # 1
84 1 -1.050000 -7.503800 -7.503800 -5.296300 # 1
85 1 -1.050000 -7.503800 -7.503800 3.237000 # 1
86 1 -1.050000 -7.503800 -5.296300 -7.503800 # 1
87 1 -1.050000 -7.503800 -5.296300 1.029500 # 1
88 1 -1.050000 -7.503800 -5.296300 9.562800 # 1
89 1 -1.050000 -7.503800 -3.237000 -9.562800 # 1
90 1 -1.050000 -7.503800 -3.237000 -1.029600 # 1
91 1 -1.050000 -7.503800 -3.237000 7.503700 # 1
92 1 -1.050000 -7.503800 -1.029600 -3.237000 # 1
93 1 -1.050000 -7.503800 -1.029600 5.296100 # 1
94 1 -1.050000 -7.503800 1.029500 -5.296300 # 1
95 1 -1.050000 -7.503800 1.029500 3.237000 # 1
96 1 -1.050000 -7.503800 3.237000 -7.503800 # 1
97 1 -1.050000 -7.503800 3.237000 1.029500 # 1
98 1 -1.050000 -7.503800 3.237000 9.562800 # 1
99 1 -1.050000 -7.503800 5.296100 -9.562800 # 1
100 1 -1.050000 -7.503800 5.296100 -1.029600 # 1
101 1 -1.050000 -7.503800 5.296100 7.503700 # 1
102 1 -1.050000 -7.503800 7.503700 -3.237000 # 1
103 1 -1.050000 -7.503800 7.503700 5.296100 # 1
104 1 -1.050000 -7.503800 9.562800 -5.296300 # 1
105 1 -1.050000 -7.503800 9.562800 3.237000 # 1
106 2 1.050000 -7.466600 -9.600000 -5.333300 # 2
107 2 1.050000 -7.466600 -9.600000 3.200000 # 2
108 2 1.050000 -7.466600 -7.466600 -3.200000 # 2
109 2 1.050000 -7.466600 -7.466600 5.333300 # 2
110 2 1.050000 -7.466600 -5.333300 -9.600000 # 2
111 2 1.050000 -7.466600 -5.333300 -1.066600 # 2
112 2 1.050000 -7.466600 -5.333300 7.466600 # 2
113 2 1.050000 -7.466600 -3.200000 -7.466600 # 2
114 2 1.050000 -7.466600 -3.200000 1.066600 # 2
115 2 1.050000 -7.466600 -3.200000 9.600000 # 2
116 2 1.050000 -7.466600 -1.066600 -5.333300 # 2
117 2 1.050000 -7.466600 -1.066600 3.200000 # 2
118 2 1.050000 -7.466600 1.066600 -3.200000 # 2
119 2 1.050000 -7.466600 1.066600 5.333300 # 2
120 2 1.050000 -7.466600 3.200000 -9.600000 # 2
121 2 1.050000 -7.466600 3.200000 -1.066600 # 2
122 2 1.050000 -7.466600 3.200000 7.466600 # 2
123 2 1.050000 -7.466600 5.333300 -7.466600 # 2
124 2 1.050000 -7.466600 5.333300 1.066600 # 2
125 2 1.050000 -7.466600 5.333300 9.600000 # 2
126 2 1.050000 -7.466600 7.466600 -5.333300 # 2
127 2 1.050000 -7.466600 7.466600 3.200000 # 2
128 2 1.050000 -7.466600 9.600000 -3.200000 # 2
129 2 1.050000 -7.466600 9.600000 5.333300 # 2
130 1 -1.050000 -7.429600 -9.637100 1.103700 # 1
131 1 -1.050000 -7.429600 -7.429600 -1.103700 # 1
132 1 -1.050000 -7.429600 -7.429600 7.429500 # 1
133 1 -1.050000 -7.429600 -5.370400 -3.162900 # 1
134 1 -1.050000 -7.429600 -5.370400 5.370300 # 1
135 1 -1.050000 -7.429600 -3.162900 -5.370400 # 1
136 1 -1.050000 -7.429600 -3.162900 3.162800 # 1
137 1 -1.050000 -7.429600 -1.103700 -7.429600 # 1
138 1 -1.050000 -7.429600 -1.103700 1.103700 # 1
139 1 -1.050000 -7.429600 -1.103700 9.637000 # 1
140 1 -1.050000 -7.429600 1.103700 -9.637100 # 1
141 1 -1.050000 -7.429600 1.103700 -1.103700 # 1
142 1 -1.050000 -7.429600 1.103700 7.429500 # 1
143 1 -1.050000 -7.429600 3.162800 -3.162900 # 1
144 1 -1.050000 -7.429600 3.162800 5.370300 # 1
145 1 -1.050000 -7.429600 5.370300 -5.370400 # 1
146 1 -1.050000 -7.429600 5.370300 3.162800 # 1
147 1 -1.050000 -7.429600 7.429500 -7.429600 # 1
148 1 -1.050000 -7.429600 7.429500 1.103700 # 1
149 1 -1.050000 -7.429600 9.637000 -1.103700 # 1
150 2 1.050000 -6.400000 -10.666600 -2.133300 # 2
151 2 1.050000 -6.400000 -6.400000 -6.400000 # 2
152 2 1.050000 -6.400000 -6.400000 2.133300 # 2
153 2 1.050000 -6.400000 -2.133300 -10.666600 # 2
154 2 1.050000 -6.400000 -2.133300 -2.133300 # 2
155 2 1.050000 -6.400000 -2.133300 6.400000 # 2
156 2 1.050000 -6.400000 2.133300 -6.400000 # 2
157 2 1.050000 -6.400000 2.133300 2.133300 # 2
158 2 1.050000 -6.400000 2.133300 10.666600 # 2
159 2 1.050000 -6.400000 6.400000 -2.133300 # 2
160 2 1.050000 -6.400000 6.400000 6.400000 # 2
161 2 1.050000 -6.400000 10.666600 2.133300 # 2
162 1 -1.050000 -5.370400 -11.696200 1.103700 # 1
163 1 -1.050000 -5.370400 -9.637100 -5.370400 # 1
164 1 -1.050000 -5.370400 -9.637100 3.162800 # 1
165 1 -1.050000 -5.370400 -7.429600 -3.162900 # 1
166 1 -1.050000 -5.370400 -7.429600 5.370300 # 1
167 1 -1.050000 -5.370400 -5.370400 -9.637100 # 1
168 1 -1.050000 -5.370400 -5.370400 -1.103700 # 1
169 1 -1.050000 -5.370400 -5.370400 7.429500 # 1
170 1 -1.050000 -5.370400 -3.162900 -7.429600 # 1
171 1 -1.050000 -5.370400 -3.162900 1.103700 # 1
172 1 -1.050000 -5.370400 -3.162900 9.637000 # 1
173 1 -1.050000 -5.370400 -1.103700 -5.370400 # 1
174 1 -1.050000 -5.370400 -1.103700 3.162800 # 1
175 1 -1.050000 -5.370400 -1.103700 11.696200 # 1
176 1 -1.050000 -5.370400 1.103700 -11.696200 # 1
177 1 -1.050000 -5.370400 1.103700 -3.162900 # 1
178 1 -1.050000 -5.370400 1.103700 5.370300 # 1
179 1 -1.050000 -5.370400 3.162800 -9.637100 # 1
180 1 -1.050000 -5.370400 3.162800 -1.103700 # 1
181 1 -1.050000 -5.370400 3.162800 7.429500 # 1
182 1 -1.050000 -5.370400 5.370300 -7.429600 # 1
183 1 -1.050000 -5.370400 5.370300 1.103700 # 1
184 1 -1.050000 -5.370400 5.370300 9.637000 # 1
185 1 -1.050000 -5.370400 7.429500 -5.370400 # 1
186 1 -1.050000 -5.370400 7.429500 3.162800 # 1
187 1 -1.050000 -5.370400 9.637000 -3.162900 # 1
188 1 -1.050000 -5.370400 9.637000 5.370300 # 1
189 1 -1.050000 -5.370400 11.696200 -1.103700 # 1
190 2 1.050000 -5.333300 -11.733300 3.200000 # 2
191 2 1.050000 -5.333300 -9.600000 -7.466600 # 2
192 2 1.050000 -5.333300 -9.600000 1.066600 # 2
193 2 1.050000 -5.333300 -7.466600 -9.600000 # 2
194 2 1.050000 -5.333300 -7.466600 -1.066600 # 2
195 2 1.050000 -5.333300 -7.466600 7.466600 # 2
196 2 1.050000 -5.333300 -5.333300 -3.200000 # 2
197 2 1.050000 -5.333300 -5.333300 5.333300 # 2
198 2 1.050000 -5.333300 -3.200000 -5.333300 # 2
199 2 1.050000 -5.333300 -3.200000 3.200000 # 2
200 2 1.050000 -5.333300 -3.200000 11.733300 # 2
201 2 1.050000 -5.333300 -1.066600 -7.466600 # 2
202 2 1.050000 -5.333300 -1.066600 1.066600 # 2
203 2 1.050000 -5.333300 -1.066600 9.600000 # 2
204 2 1.050000 -5.333300 1.066600 -9.600000 # 2
205 2 1.050000 -5.333300 1.066600 -1.066600 # 2
206 2 1.050000 -5.333300 1.066600 7.466600 # 2
207 2 1.050000 -5.333300 3.200000 -11.733300 # 2
208 2 1.050000 -5.333300 3.200000 -3.200000 # 2
209 2 1.050000 -5.333300 3.200000 5.333300 # 2
210 2 1.050000 -5.333300 5.333300 -5.333300 # 2
211 2 1.050000 -5.333300 5.333300 3.200000 # 2
212 2 1.050000 -5.333300 7.466600 -7.466600 # 2
213 2 1.050000 -5.333300 7.466600 1.066600 # 2
214 2 1.050000 -5.333300 7.466600 9.600000 # 2
215 2 1.050000 -5.333300 9.600000 -1.066600 # 2
216 2 1.050000 -5.333300 9.600000 7.466600 # 2
217 2 1.050000 -5.333300 11.733300 -3.200000 # 2
218 1 -1.050000 -5.296300 -9.562800 -1.029600 # 1
219 1 -1.050000 -5.296300 -9.562800 7.503700 # 1
220 1 -1.050000 -5.296300 -7.503800 -7.503800 # 1
221 1 -1.050000 -5.296300 -7.503800 1.029500 # 1
222 1 -1.050000 -5.296300 -7.503800 9.562800 # 1
223 1 -1.050000 -5.296300 -5.296300 -5.296300 # 1
224 1 -1.050000 -5.296300 -5.296300 3.237000 # 1
225 1 -1.050000 -5.296300 -3.237000 -3.237000 # 1
226 1 -1.050000 -5.296300 -3.237000 5.296100 # 1
227 1 -1.050000 -5.296300 -1.029600 -9.562800 # 1
228 1 -1.050000 -5.296300 -1.029600 -1.029600 # 1
229 1 -1.050000 -5.296300 -1.029600 7.503700 # 1
230 1 -1.050000 -5.296300 1.029500 -7.503800 # 1
231 1 -1.050000 -5.296300 1.029500 1.029500 # 1
232 1 -1.050000 -5.296300 1.029500 9.562800 # 1
233 1 -1.050000 -5.296300 3.237000 -5.296300 # 1
234 1 -1.050000 -5.296300 3.237000 3.237000 # 1
235 1 -1.050000 -5.296300 5.296100 -3.237000 # 1
236 1 -1.050000 -5.296300 5.296100 5.296100 # 1
237 1 -1.050000 -5.296300 7.503700 -9.562800 # 1
238 1 -1.050000 -5.296300 7.503700 -1.029600 # 1
239 1 -1.050000 -5.296300 7.503700 7.503700 # 1
240 1 -1.050000 -5.296300 9.562800 -7.503800 # 1
241 1 -1.050000 -5.296300 9.562800 1.029500 # 1
242 2 1.050000 -4.266600 -8.533300 -4.266600 # 2
243 2 1.050000 -4.266600 -8.533300 4.266600 # 2
244 2 1.050000 -4.266600 -4.266600 -8.533300 # 2
245 2 1.050000 -4.266600 -4.266600 0.000000 # 2
246 2 1.050000 -4.266600 -4.266600 8.533300 # 2
247 2 1.050000 -4.266600 0.000000 -4.266600 # 2
248 2 1.050000 -4.266600 0.000000 4.266600 # 2
249 2 1.050000 -4.266600 4.266600 -8.533300 # 2
250 2 1.050000 -4.266600 4.266600 0.000000 # 2
251 2 1.050000 -4.266600 4.266600 8.533300 # 2
252 2 1.050000 -4.266600 8.533300 -4.266600 # 2
253 2 1.050000 -4.266600 8.533300 4.266600 # 2
254 1 -1.050000 -3.237000 -11.770400 3.237000 # 1
255 1 -1.050000 -3.237000 -9.562800 -7.503800 # 1
256 1 -1.050000 -3.237000 -9.562800 1.029500 # 1
257 1 -1.050000 -3.237000 -7.503800 -9.562800 # 1
258 1 -1.050000 -3.237000 -7.503800 -1.029600 # 1
259 1 -1.050000 -3.237000 -7.503800 7.503700 # 1
260 1 -1.050000 -3.237000 -5.296300 -3.237000 # 1
261 1 -1.050000 -3.237000 -5.296300 5.296100 # 1
262 1 -1.050000 -3.237000 -3.237000 -5.296300 # 1
263 1 -1.050000 -3.237000 -3.237000 3.237000 # 1
264 1 -1.050000 -3.237000 -3.237000 11.770300 # 1
265 1 -1.050000 -3.237000 -1.029600 -7.503800 # 1
266 1 -1.050000 -3.237000 -1.029600 1.029500 # 1
267 1 -1.050000 -3.237000 -1.029600 9.562800 # 1
268 1 -1.050000 -3.237000 1.029500 -9.562800 # 1
269 1 -1.050000 -3.237000 1.029500 -1.029600 # 1
270 1 -1.050000 -3.237000 1.029500 7.503700 # 1
271 1 -1.050000 -3.237000 3.237000 -11.770400 # 1
272 1 -1.050000 -3.237000 3.237000 -3.237000 # 1
273 1 -1.050000 -3.237000 3.237000 5.296100 # 1
274 1 -1.050000 -3.237000 5.296100 -5.296300 # 1
275 1 -1.050000 -3.237000 5.296100 3.237000 # 1
276 1 -1.050000 -3.237000 7.503700 -7.503800 # 1
277 1 -1.050000 -3.237000 7.503700 1.029500 # 1
278 1 -1.050000 -3.237000 7.503700 9.562800 # 1
279 1 -1.050000 -3.237000 9.562800 -1.029600 # 1
280 1 -1.050000 -3.237000 9.562800 7.503700 # 1
281 1 -1.050000 -3.237000 11.770300 -3.237000 # 1
282 2 1.050000 -3.200000 -11.733300 -3.200000 # 2
283 2 1.050000 -3.200000 -11.733300 5.333300 # 2
284 2 1.050000 -3.200000 -9.600000 -1.066600 # 2
285 2 1.050000 -3.200000 -9.600000 7.466600 # 2
286 2 1.050000 -3.200000 -7.466600 -7.466600 # 2
287 2 1.050000 -3.200000 -7.466600 1.066600 # 2
288 2 1.050000 -3.200000 -7.466600 9.600000 # 2
289 2 1.050000 -3.200000 -5.333300 -5.333300 # 2
290 2 1.050000 -3.200000 -5.333300 3.200000 # 2
291 2 1.050000 -3.200000 -5.333300 11.733300 # 2
292 2 1.050000 -3.200000 -3.200000 -11.733300 # 2
293 2 1.050000 -3.200000 -3.200000 -3.200000 # 2
294 2 1.050000 -3.200000 -3.200000 5.333300 # 2
295 2 1.050000 -3.200000 -1.066600 -9.600000 # 2
296 2 1.050000 -3.200000 -1.066600 -1.066600 # 2
297 2 1.050000 -3.200000 -1.066600 7.466600 # 2
298 2 1.050000 -3.200000 1.066600 -7.466600 # 2
299 2 1.050000 -3.200000 1.066600 1.066600 # 2
300 2 1.050000 -3.200000 1.066600 9.600000 # 2
301 2 1.050000 -3.200000 3.200000 -5.333300 # 2
302 2 1.050000 -3.200000 3.200000 3.200000 # 2
303 2 1.050000 -3.200000 3.200000 11.733300 # 2
304 2 1.050000 -3.200000 5.333300 -11.733300 # 2
305 2 1.050000 -3.200000 5.333300 -3.200000 # 2
306 2 1.050000 -3.200000 5.333300 5.333300 # 2
307 2 1.050000 -3.200000 7.466600 -9.600000 # 2
308 2 1.050000 -3.200000 7.466600 -1.066600 # 2
309 2 1.050000 -3.200000 7.466600 7.466600 # 2
310 2 1.050000 -3.200000 9.600000 -7.466600 # 2
311 2 1.050000 -3.200000 9.600000 1.066600 # 2
312 2 1.050000 -3.200000 11.733300 -5.333300 # 2
313 2 1.050000 -3.200000 11.733300 3.200000 # 2
314 1 -1.050000 -3.162900 -11.696200 -1.103700 # 1
315 1 -1.050000 -3.162900 -9.637100 -3.162900 # 1
316 1 -1.050000 -3.162900 -9.637100 5.370300 # 1
317 1 -1.050000 -3.162900 -7.429600 -5.370400 # 1
318 1 -1.050000 -3.162900 -7.429600 3.162800 # 1
319 1 -1.050000 -3.162900 -5.370400 -7.429600 # 1
320 1 -1.050000 -3.162900 -5.370400 1.103700 # 1
321 1 -1.050000 -3.162900 -5.370400 9.637000 # 1
322 1 -1.050000 -3.162900 -3.162900 -9.637100 # 1
323 1 -1.050000 -3.162900 -3.162900 -1.103700 # 1
324 1 -1.050000 -3.162900 -3.162900 7.429500 # 1
325 1 -1.050000 -3.162900 -1.103700 -11.696200 # 1
326 1 -1.050000 -3.162900 -1.103700 -3.162900 # 1
327 1 -1.050000 -3.162900 -1.103700 5.370300 # 1
328 1 -1.050000 -3.162900 1.103700 -5.370400 # 1
329 1 -1.050000 -3.162900 1.103700 3.162800 # 1
330 1 -1.050000 -3.162900 1.103700 11.696200 # 1
331 1 -1.050000 -3.162900 3.162800 -7.429600 # 1
332 1 -1.050000 -3.162900 3.162800 1.103700 # 1
333 1 -1.050000 -3.162900 3.162800 9.637000 # 1
334 1 -1.050000 -3.162900 5.370300 -9.637100 # 1
335 1 -1.050000 -3.162900 5.370300 -1.103700 # 1
336 1 -1.050000 -3.162900 5.370300 7.429500 # 1
337 1 -1.050000 -3.162900 7.429500 -3.162900 # 1
338 1 -1.050000 -3.162900 7.429500 5.370300 # 1
339 1 -1.050000 -3.162900 9.637000 -5.370400 # 1
340 1 -1.050000 -3.162900 9.637000 3.162800 # 1
341 1 -1.050000 -3.162900 11.696200 1.103700 # 1
342 2 1.050000 -2.133300 -10.666600 -6.400000 # 2
343 2 1.050000 -2.133300 -10.666600 2.133300 # 2
344 2 1.050000 -2.133300 -6.400000 -10.666600 # 2
345 2 1.050000 -2.133300 -6.400000 -2.133300 # 2
346 2 1.050000 -2.133300 -6.400000 6.400000 # 2
347 2 1.050000 -2.133300 -2.133300 -6.400000 # 2
348 2 1.050000 -2.133300 -2.133300 2.133300 # 2
349 2 1.050000 -2.133300 -2.133300 10.666600 # 2
350 2 1.050000 -2.133300 2.133300 -10.666600 # 2
351 2 1.050000 -2.133300 2.133300 -2.133300 # 2
352 2 1.050000 -2.133300 2.133300 6.400000 # 2
353 2 1.050000 -2.133300 6.400000 -6.400000 # 2
354 2 1.050000 -2.133300 6.400000 2.133300 # 2
355 2 1.050000 -2.133300 6.400000 10.666600 # 2
356 2 1.050000 -2.133300 10.666600 -2.133300 # 2
357 2 1.050000 -2.133300 10.666600 6.400000 # 2
358 1 -1.050000 -1.103700 -11.696200 -3.162900 # 1
359 1 -1.050000 -1.103700 -11.696200 5.370300 # 1
360 1 -1.050000 -1.103700 -9.637100 -1.103700 # 1
361 1 -1.050000 -1.103700 -9.637100 7.429500 # 1
362 1 -1.050000 -1.103700 -7.429600 -7.429600 # 1
363 1 -1.050000 -1.103700 -7.429600 1.103700 # 1
364 1 -1.050000 -1.103700 -7.429600 9.637000 # 1
365 1 -1.050000 -1.103700 -5.370400 -5.370400 # 1
366 1 -1.050000 -1.103700 -5.370400 3.162800 # 1
367 1 -1.050000 -1.103700 -5.370400 11.696200 # 1
368 1 -1.050000 -1.103700 -3.162900 -11.696200 # 1
369 1 -1.050000 -1.103700 -3.162900 -3.162900 # 1
370 1 -1.050000 -1.103700 -3.162900 5.370300 # 1
371 1 -1.050000 -1.103700 -1.103700 -9.637100 # 1
372 1 -1.050000 -1.103700 -1.103700 -1.103700 # 1
373 1 -1.050000 -1.103700 -1.103700 7.429500 # 1
374 1 -1.050000 -1.103700 1.103700 -7.429600 # 1
375 1 -1.050000 -1.103700 1.103700 1.103700 # 1
376 1 -1.050000 -1.103700 1.103700 9.637000 # 1
377 1 -1.050000 -1.103700 3.162800 -5.370400 # 1
378 1 -1.050000 -1.103700 3.162800 3.162800 # 1
379 1 -1.050000 -1.103700 3.162800 11.696200 # 1
380 1 -1.050000 -1.103700 5.370300 -11.696200 # 1
381 1 -1.050000 -1.103700 5.370300 -3.162900 # 1
382 1 -1.050000 -1.103700 5.370300 5.370300 # 1
383 1 -1.050000 -1.103700 7.429500 -9.637100 # 1
384 1 -1.050000 -1.103700 7.429500 -1.103700 # 1
385 1 -1.050000 -1.103700 7.429500 7.429500 # 1
386 1 -1.050000 -1.103700 9.637000 -7.429600 # 1
387 1 -1.050000 -1.103700 9.637000 1.103700 # 1
388 1 -1.050000 -1.103700 11.696200 -5.370400 # 1
389 1 -1.050000 -1.103700 11.696200 3.162800 # 1
390 2 1.050000 -1.066600 -11.733300 -1.066600 # 2
391 2 1.050000 -1.066600 -9.600000 -3.200000 # 2
392 2 1.050000 -1.066600 -9.600000 5.333300 # 2
393 2 1.050000 -1.066600 -7.466600 -5.333300 # 2
394 2 1.050000 -1.066600 -7.466600 3.200000 # 2
395 2 1.050000 -1.066600 -5.333300 -7.466600 # 2
396 2 1.050000 -1.066600 -5.333300 1.066600 # 2
397 2 1.050000 -1.066600 -5.333300 9.600000 # 2
398 2 1.050000 -1.066600 -3.200000 -9.600000 # 2
399 2 1.050000 -1.066600 -3.200000 -1.066600 # 2
400 2 1.050000 -1.066600 -3.200000 7.466600 # 2
401 2 1.050000 -1.066600 -1.066600 -11.733300 # 2
402 2 1.050000 -1.066600 -1.066600 -3.200000 # 2
403 2 1.050000 -1.066600 -1.066600 5.333300 # 2
404 2 1.050000 -1.066600 1.066600 -5.333300 # 2
405 2 1.050000 -1.066600 1.066600 3.200000 # 2
406 2 1.050000 -1.066600 1.066600 11.733300 # 2
407 2 1.050000 -1.066600 3.200000 -7.466600 # 2
408 2 1.050000 -1.066600 3.200000 1.066600 # 2
409 2 1.050000 -1.066600 3.200000 9.600000 # 2
410 2 1.050000 -1.066600 5.333300 -9.600000 # 2
411 2 1.050000 -1.066600 5.333300 -1.066600 # 2
412 2 1.050000 -1.066600 5.333300 7.466600 # 2
413 2 1.050000 -1.066600 7.466600 -3.200000 # 2
414 2 1.050000 -1.066600 7.466600 5.333300 # 2
415 2 1.050000 -1.066600 9.600000 -5.333300 # 2
416 2 1.050000 -1.066600 9.600000 3.200000 # 2
417 2 1.050000 -1.066600 11.733300 1.066600 # 2
418 1 -1.050000 -1.029600 -11.770400 1.029500 # 1
419 1 -1.050000 -1.029600 -9.562800 -5.296300 # 1
420 1 -1.050000 -1.029600 -9.562800 3.237000 # 1
421 1 -1.050000 -1.029600 -7.503800 -3.237000 # 1
422 1 -1.050000 -1.029600 -7.503800 5.296100 # 1
423 1 -1.050000 -1.029600 -5.296300 -9.562800 # 1
424 1 -1.050000 -1.029600 -5.296300 -1.029600 # 1
425 1 -1.050000 -1.029600 -5.296300 7.503700 # 1
426 1 -1.050000 -1.029600 -3.237000 -7.503800 # 1
427 1 -1.050000 -1.029600 -3.237000 1.029500 # 1
428 1 -1.050000 -1.029600 -3.237000 9.562800 # 1
429 1 -1.050000 -1.029600 -1.029600 -5.296300 # 1
430 1 -1.050000 -1.029600 -1.029600 3.237000 # 1
431 1 -1.050000 -1.029600 -1.029600 11.770300 # 1
432 1 -1.050000 -1.029600 1.029500 -11.770400 # 1
433 1 -1.050000 -1.029600 1.029500 -3.237000 # 1
434 1 -1.050000 -1.029600 1.029500 5.296100 # 1
435 1 -1.050000 -1.029600 3.237000 -9.562800 # 1
436 1 -1.050000 -1.029600 3.237000 -1.029600 # 1
437 1 -1.050000 -1.029600 3.237000 7.503700 # 1
438 1 -1.050000 -1.029600 5.296100 -7.503800 # 1
439 1 -1.050000 -1.029600 5.296100 1.029500 # 1
440 1 -1.050000 -1.029600 5.296100 9.562800 # 1
441 1 -1.050000 -1.029600 7.503700 -5.296300 # 1
442 1 -1.050000 -1.029600 7.503700 3.237000 # 1
443 1 -1.050000 -1.029600 9.562800 -3.237000 # 1
444 1 -1.050000 -1.029600 9.562800 5.296100 # 1
445 1 -1.050000 -1.029600 11.770300 -1.029600 # 1
446 2 1.050000 0.000000 -8.533300 -8.533300 # 2
447 2 1.050000 0.000000 -8.533300 0.000000 # 2
448 2 1.050000 0.000000 -8.533300 8.533300 # 2
449 2 1.050000 0.000000 -4.266600 -4.266600 # 2
450 2 1.050000 0.000000 -4.266600 4.266600 # 2
451 2 1.050000 0.000000 0.000000 -8.533300 # 2
452 2 1.050000 0.000000 0.000000 0.000000 # 2
453 2 1.050000 0.000000 0.000000 8.533300 # 2
454 2 1.050000 0.000000 4.266600 -4.266600 # 2
455 2 1.050000 0.000000 4.266600 4.266600 # 2
456 2 1.050000 0.000000 8.533300 -8.533300 # 2
457 2 1.050000 0.000000 8.533300 0.000000 # 2
458 2 1.050000 0.000000 8.533300 8.533300 # 2
459 1 -1.050000 1.029500 -11.770400 -1.029600 # 1
460 1 -1.050000 1.029500 -9.562800 -3.237000 # 1
461 1 -1.050000 1.029500 -9.562800 5.296100 # 1
462 1 -1.050000 1.029500 -7.503800 -5.296300 # 1
463 1 -1.050000 1.029500 -7.503800 3.237000 # 1
464 1 -1.050000 1.029500 -5.296300 -7.503800 # 1
465 1 -1.050000 1.029500 -5.296300 1.029500 # 1
466 1 -1.050000 1.029500 -5.296300 9.562800 # 1
467 1 -1.050000 1.029500 -3.237000 -9.562800 # 1
468 1 -1.050000 1.029500 -3.237000 -1.029600 # 1
469 1 -1.050000 1.029500 -3.237000 7.503700 # 1
470 1 -1.050000 1.029500 -1.029600 -11.770400 # 1
471 1 -1.050000 1.029500 -1.029600 -3.237000 # 1
472 1 -1.050000 1.029500 -1.029600 5.296100 # 1
473 1 -1.050000 1.029500 1.029500 -5.296300 # 1
474 1 -1.050000 1.029500 1.029500 3.237000 # 1
475 1 -1.050000 1.029500 1.029500 11.770300 # 1
476 1 -1.050000 1.029500 3.237000 -7.503800 # 1
477 1 -1.050000 1.029500 3.237000 1.029500 # 1
478 1 -1.050000 1.029500 3.237000 9.562800 # 1
479 1 -1.050000 1.029500 5.296100 -9.562800 # 1
480 1 -1.050000 1.029500 5.296100 -1.029600 # 1
481 1 -1.050000 1.029500 5.296100 7.503700 # 1
482 1 -1.050000 1.029500 7.503700 -3.237000 # 1
483 1 -1.050000 1.029500 7.503700 5.296100 # 1
484 1 -1.050000 1.029500 9.562800 -5.296300 # 1
485 1 -1.050000 1.029500 9.562800 3.237000 # 1
486 1 -1.050000 1.029500 11.770300 1.029500 # 1
487 2 1.050000 1.066600 -11.733300 1.066600 # 2
488 2 1.050000 1.066600 -9.600000 -5.333300 # 2
489 2 1.050000 1.066600 -9.600000 3.200000 # 2
490 2 1.050000 1.066600 -7.466600 -3.200000 # 2
491 2 1.050000 1.066600 -7.466600 5.333300 # 2
492 2 1.050000 1.066600 -5.333300 -9.600000 # 2
493 2 1.050000 1.066600 -5.333300 -1.066600 # 2
494 2 1.050000 1.066600 -5.333300 7.466600 # 2
495 2 1.050000 1.066600 -3.200000 -7.466600 # 2
496 2 1.050000 1.066600 -3.200000 1.066600 # 2
497 2 1.050000 1.066600 -3.200000 9.600000 # 2
498 2 1.050000 1.066600 -1.066600 -5.333300 # 2
499 2 1.050000 1.066600 -1.066600 3.200000 # 2
500 2 1.050000 1.066600 -1.066600 11.733300 # 2
501 2 1.050000 1.066600 1.066600 -11.733300 # 2
502 2 1.050000 1.066600 1.066600 -3.200000 # 2
503 2 1.050000 1.066600 1.066600 5.333300 # 2
504 2 1.050000 1.066600 3.200000 -9.600000 # 2
505 2 1.050000 1.066600 3.200000 -1.066600 # 2
506 2 1.050000 1.066600 3.200000 7.466600 # 2
507 2 1.050000 1.066600 5.333300 -7.466600 # 2
508 2 1.050000 1.066600 5.333300 1.066600 # 2
509 2 1.050000 1.066600 5.333300 9.600000 # 2
510 2 1.050000 1.066600 7.466600 -5.333300 # 2
511 2 1.050000 1.066600 7.466600 3.200000 # 2
512 2 1.050000 1.066600 9.600000 -3.200000 # 2
513 2 1.050000 1.066600 9.600000 5.333300 # 2
514 2 1.050000 1.066600 11.733300 -1.066600 # 2
515 1 -1.050000 1.103700 -11.696200 -5.370400 # 1
516 1 -1.050000 1.103700 -11.696200 3.162800 # 1
517 1 -1.050000 1.103700 -9.637100 -7.429600 # 1
518 1 -1.050000 1.103700 -9.637100 1.103700 # 1
519 1 -1.050000 1.103700 -7.429600 -9.637100 # 1
520 1 -1.050000 1.103700 -7.429600 -1.103700 # 1
521 1 -1.050000 1.103700 -7.429600 7.429500 # 1
522 1 -1.050000 1.103700 -5.370400 -11.696200 # 1
523 1 -1.050000 1.103700 -5.370400 -3.162900 # 1
524 1 -1.050000 1.103700 -5.370400 5.370300 # 1
525 1 -1.050000 1.103700 -3.162900 -5.370400 # 1
526 1 -1.050000 1.103700 -3.162900 3.162800 # 1
527 1 -1.050000 1.103700 -3.162900 11.696200 # 1
528 1 -1.050000 1.103700 -1.103700 -7.429600 # 1
529 1 -1.050000 1.103700 -1.103700 1.103700 # 1
530 1 -1.050000 1.103700 -1.103700 9.637000 # 1
531 1 -1.050000 1.103700 1.103700 -9.637100 # 1
532 1 -1.050000 1.103700 1.103700 -1.103700 # 1
533 1 -1.050000 1.103700 1.103700 7.429500 # 1
534 1 -1.050000 1.103700 3.162800 -11.696200 # 1
535 1 -1.050000 1.103700 3.162800 -3.162900 # 1
536 1 -1.050000 1.103700 3.162800 5.370300 # 1
537 1 -1.050000 1.103700 5.370300 -5.370400 # 1
538 1 -1.050000 1.103700 5.370300 3.162800 # 1
539 1 -1.050000 1.103700 5.370300 11.696200 # 1
540 1 -1.050000 1.103700 7.429500 -7.429600 # 1
541 1 -1.050000 1.103700 7.429500 1.103700 # 1
542 1 -1.050000 1.103700 7.429500 9.637000 # 1
543 1 -1.050000 1.103700 9.637000 -1.103700 # 1
544 1 -1.050000 1.103700 9.637000 7.429500 # 1
545 1 -1.050000 1.103700 11.696200 -3.162900 # 1
546 1 -1.050000 1.103700 11.696200 5.370300 # 1
547 2 1.050000 2.133300 -10.666600 -2.133300 # 2
548 2 1.050000 2.133300 -10.666600 6.400000 # 2
549 2 1.050000 2.133300 -6.400000 -6.400000 # 2
550 2 1.050000 2.133300 -6.400000 2.133300 # 2
551 2 1.050000 2.133300 -6.400000 10.666600 # 2
552 2 1.050000 2.133300 -2.133300 -10.666600 # 2
553 2 1.050000 2.133300 -2.133300 -2.133300 # 2
554 2 1.050000 2.133300 -2.133300 6.400000 # 2
555 2 1.050000 2.133300 2.133300 -6.400000 # 2
556 2 1.050000 2.133300 2.133300 2.133300 # 2
557 2 1.050000 2.133300 2.133300 10.666600 # 2
558 2 1.050000 2.133300 6.400000 -10.666600 # 2
559 2 1.050000 2.133300 6.400000 -2.133300 # 2
560 2 1.050000 2.133300 6.400000 6.400000 # 2
561 2 1.050000 2.133300 10.666600 -6.400000 # 2
562 2 1.050000 2.133300 10.666600 2.133300 # 2
563 1 -1.050000 3.162800 -11.696200 1.103700 # 1
564 1 -1.050000 3.162800 -9.637100 -5.370400 # 1
565 1 -1.050000 3.162800 -9.637100 3.162800 # 1
566 1 -1.050000 3.162800 -7.429600 -3.162900 # 1
567 1 -1.050000 3.162800 -7.429600 5.370300 # 1
568 1 -1.050000 3.162800 -5.370400 -9.637100 # 1
569 1 -1.050000 3.162800 -5.370400 -1.103700 # 1
570 1 -1.050000 3.162800 -5.370400 7.429500 # 1
571 1 -1.050000 3.162800 -3.162900 -7.429600 # 1
572 1 -1.050000 3.162800 -3.162900 1.103700 # 1
573 1 -1.050000 3.162800 -3.162900 9.637000 # 1
574 1 -1.050000 3.162800 -1.103700 -5.370400 # 1
575 1 -1.050000 3.162800 -1.103700 3.162800 # 1
576 1 -1.050000 3.162800 -1.103700 11.696200 # 1
577 1 -1.050000 3.162800 1.103700 -11.696200 # 1
578 1 -1.050000 3.162800 1.103700 -3.162900 # 1
579 1 -1.050000 3.162800 1.103700 5.370300 # 1
580 1 -1.050000 3.162800 3.162800 -9.637100 # 1
581 1 -1.050000 3.162800 3.162800 -1.103700 # 1
582 1 -1.050000 3.162800 3.162800 7.429500 # 1
583 1 -1.050000 3.162800 5.370300 -7.429600 # 1
584 1 -1.050000 3.162800 5.370300 1.103700 # 1
585 1 -1.050000 3.162800 5.370300 9.637000 # 1
586 1 -1.050000 3.162800 7.429500 -5.370400 # 1
587 1 -1.050000 3.162800 7.429500 3.162800 # 1
588 1 -1.050000 3.162800 9.637000 -3.162900 # 1
589 1 -1.050000 3.162800 9.637000 5.370300 # 1
590 1 -1.050000 3.162800 11.696200 -1.103700 # 1
591 2 1.050000 3.200000 -11.733300 -5.333300 # 2
592 2 1.050000 3.200000 -11.733300 3.200000 # 2
593 2 1.050000 3.200000 -9.600000 -7.466600 # 2
594 2 1.050000 3.200000 -9.600000 1.066600 # 2
595 2 1.050000 3.200000 -7.466600 -9.600000 # 2
596 2 1.050000 3.200000 -7.466600 -1.066600 # 2
597 2 1.050000 3.200000 -7.466600 7.466600 # 2
598 2 1.050000 3.200000 -5.333300 -11.733300 # 2
599 2 1.050000 3.200000 -5.333300 -3.200000 # 2
600 2 1.050000 3.200000 -5.333300 5.333300 # 2
601 2 1.050000 3.200000 -3.200000 -5.333300 # 2
602 2 1.050000 3.200000 -3.200000 3.200000 # 2
603 2 1.050000 3.200000 -3.200000 11.733300 # 2
604 2 1.050000 3.200000 -1.066600 -7.466600 # 2
605 2 1.050000 3.200000 -1.066600 1.066600 # 2
606 2 1.050000 3.200000 -1.066600 9.600000 # 2
607 2 1.050000 3.200000 1.066600 -9.600000 # 2
608 2 1.050000 3.200000 1.066600 -1.066600 # 2
609 2 1.050000 3.200000 1.066600 7.466600 # 2
610 2 1.050000 3.200000 3.200000 -11.733300 # 2
611 2 1.050000 3.200000 3.200000 -3.200000 # 2
612 2 1.050000 3.200000 3.200000 5.333300 # 2