LAMMPS data file via write_data, version 10 Feb 2021, timestep = 0

963 atoms
9 atom types
40 bonds
1 bond types
20 angles
1 angle types

-50 100 xlo xhi
-50 100 ylo yhi
-50 100 zlo zhi

Masses

1 15.9994
2 55.845001
3 55.845001
4 55.845001
5 55.845001
6 55.845001
7 55.845001
8 15.9994
9 1.008

Pair Coeffs # lj/cut/coul/long

1 0.1554 3.16554
2 9.0298e-06 4.07222
3 9.0298e-06 4.07222
4 9.0298e-06 4.07222
5 9.0298e-06 4.07222
6 9.0298e-06 4.07222
7 9.0298e-06 4.07222
8 0.102 3.188
9 0 0

Bond Coeffs # harmonic

1 450 0.9572

Angle Coeffs # harmonic

1 55 105.52

Atoms # full

1 1 1 -1.05 63.2295 71.762899 78.237 0 0 0
2 1 1 -1.05 63.2296 73.9704 76.029499 0 0 0
3 1 1 -1.05 63.2296 76.029499 73.9704 0 0 0
4 1 1 -1.05 63.2296 78.237 71.763 0 0 0
5 4 5 1.05 63.2667 69.66669999999999 78.200001 0 0 0
6 4 5 1.05 63.2667 71.799999 71.799999 0 0 0
7 4 5 1.05 63.2667 71.799999 80.333298 0 0 0
8 6 7 1.05 63.2667 73.93339900000001 73.93339900000001 0 0 0
9 6 7 1.05 63.2667 76.06660099999999 76.06660099999999 0 0 0
10 4 5 1.05 63.2667 78.200001 69.66669999999999 0 0 0
11 4 5 1.05 63.2667 78.200001 78.200001 0 0 0
12 4 5 1.05 63.2667 80.333298 71.799999 0 0 0
13 1 1 -1.05 63.3038 69.62960100000001 76.103701 0 0 0
14 1 1 -1.05 63.3038 71.837101 73.896299 0 0 0
15 1 1 -1.05 63.3038 73.896299 71.837101 0 0 0
16 1 1 -1.05 63.3038 73.896299 80.3703 0 0 0
17 1 1 -1.05 63.3038 76.103701 69.62960100000001 0 0 0
18 1 1 -1.05 63.3038 76.103701 78.1628 0 0 0
19 1 1 -1.05 63.3038 78.1628 76.103701 0 0 0
20 1 1 -1.05 63.3038 80.3703 73.896299 0 0 0
21 2 3 1.05 64.333401 68.6 72.866699 0 0 0
22 2 3 1.05 64.333401 72.866699 68.6 0 0 0
23 1 2 1.05 64.333401 72.866699 77.133301 0 0 0
24 1 2 1.05 64.333401 77.133301 72.866699 0 0 0
25 2 3 1.05 64.333401 77.133301 81.400002 0 0 0
26 2 3 1.05 64.333401 81.400002 77.133301 0 0 0
27 1 1 -1.05 65.3629 67.5704 76.103701 0 0 0
28 1 1 -1.05 65.3629 69.62960100000001 69.62960100000001 0 0 0
29 1 1 -1.05 65.3629 69.62960100000001 78.1628 0 0 0
30 1 1 -1.05 65.3629 71.837101 71.837101 0 0 0
31 1 1 -1.05 65.3629 71.837101 80.3703 0 0 0
32 1 1 -1.05 65.3629 73.896299 73.896299 0 0 0
33 1 1 -1.05 65.3629 73.896299 82.429501 0 0 0
34 1 1 -1.05 65.3629 76.103701 67.5704 0 0 0
35 1 1 -1.05 65.3629 76.103701 76.103701 0 0 0
36 1 1 -1.05 65.3629 78.1628 69.62960100000001 0 0 0
37 1 1 -1.05 65.3629 78.1628 78.1628 0 0 0
38 1 1 -1.05 65.3629 80.3703 71.837101 0 0 0
39 1 1 -1.05 65.3629 80.3703 80.3703 0 0 0
40 1 1 -1.05 65.3629 82.429501 73.896299 0 0 0
41 4 5 1.05 65.4 67.5334 69.66669999999999 0 0 0
42 5 6 1.05 65.4 67.5334 78.200001 0 0 0
43 4 5 1.05 65.4 69.66669999999999 67.5334 0 0 0
44 1 2 1.05 65.4 69.66669999999999 76.06660099999999 0 0 0
45 1 2 1.05 65.4 71.799999 73.93339900000001 0 0 0
46 5 6 1.05 65.4 71.799999 82.466599 0 0 0
47 1 2 1.05 65.4 73.93339900000001 71.799999 0 0 0
48 1 2 1.05 65.4 73.93339900000001 80.333298 0 0 0
49 1 2 1.05 65.4 76.06660099999999 69.66669999999999 0 0 0
50 1 2 1.05 65.4 76.06660099999999 78.200001 0 0 0
51 5 6 1.05 65.4 78.200001 67.5334 0 0 0
52 1 2 1.05 65.4 78.200001 76.06660099999999 0 0 0
53 1 2 1.05 65.4 80.333298 73.93339900000001 0 0 0
54 4 5 1.05 65.4 80.333298 82.466599 0 0 0
55 5 6 1.05 65.4 82.466599 71.799999 0 0 0
56 4 5 1.05 65.4 82.466599 80.333298 0 0 0
57 1 1 -1.05 65.43719899999999 67.496201 71.763 0 0 0
58 1 1 -1.05 65.43719899999999 67.496201 80.296101 0 0 0
59 1 1 -1.05 65.43719899999999 69.703701 73.9704 0 0 0
60 1 1 -1.05 65.43719899999999 69.703701 82.50370000000001 0 0 0
61 1 1 -1.05 65.43719899999999 71.763 67.496201 0 0 0
62 1 1 -1.05 65.43719899999999 71.763 76.029499 0 0 0
63 1 1 -1.05 65.43719899999999 73.9704 69.703701 0 0 0
64 1 1 -1.05 65.43719899999999 73.9704 78.237 0 0 0
65 1 1 -1.05 65.43719899999999 76.029499 71.763 0 0 0
66 1 1 -1.05 65.43719899999999 76.029499 80.296101 0 0 0
67 1 1 -1.05 65.43719899999999 78.237 73.9704 0 0 0
68 1 1 -1.05 65.43719899999999 78.237 82.50370000000001 0 0 0
69 1 1 -1.05 65.43719899999999 80.296101 67.496201 0 0 0
70 1 1 -1.05 65.43719899999999 80.296101 76.029499 0 0 0
71 1 1 -1.05 65.43719899999999 82.50370000000001 69.703701 0 0 0
72 1 1 -1.05 65.43719899999999 82.50370000000001 78.237 0 0 0
73 3 4 1.05 66.4667 66.4667 75 0 0 0
74 1 2 1.05 66.4667 70.7334 70.7334 0 0 0
75 1 2 1.05 66.4667 70.7334 79.2666 0 0 0
76 3 4 1.05 66.4667 75 66.4667 0 0 0
77 1 2 1.05 66.4667 75 75 0 0 0
78 3 4 1.05 66.4667 75 83.53330199999999 0 0 0
79 1 2 1.05 66.4667 79.2666 70.7334 0 0 0
80 1 2 1.05 66.4667 79.2666 79.2666 0 0 0
81 3 4 1.05 66.4667 83.53330199999999 75 0 0 0
82 1 1 -1.05 67.496201 65.43719899999999 71.763 0 0 0
83 1 1 -1.05 67.496201 65.43719899999999 80.296101 0 0 0
84 1 1 -1.05 67.496201 67.496201 69.703701 0 0 0
85 1 1 -1.05 67.496201 67.496201 78.237 0 0 0
86 1 1 -1.05 67.496201 69.703701 67.496201 0 0 0
87 1 1 -1.05 67.496201 69.703701 76.029499 0 0 0
88 1 1 -1.05 67.496201 69.703701 84.56280100000001 0 0 0
89 1 1 -1.05 67.496201 71.763 65.43719899999999 0 0 0
90 1 1 -1.05 67.496201 71.763 73.9704 0 0 0
91 1 1 -1.05 67.496201 71.763 82.50370000000001 0 0 0
92 1 1 -1.05 67.496201 73.9704 71.763 0 0 0
93 1 1 -1.05 67.496201 73.9704 80.296101 0 0 0
94 1 1 -1.05 67.496201 76.029499 69.703701 0 0 0
95 1 1 -1.05 67.496201 76.029499 78.237 0 0 0
96 1 1 -1.05 67.496201 78.237 67.496201 0 0 0
97 1 1 -1.05 67.496201 78.237 76.029499 0 0 0
98 1 1 -1.05 67.496201 78.237 84.56280100000001 0 0 0
99 1 1 -1.05 67.496201 80.296101 65.43719899999999 0 0 0
100 1 1 -1.05 67.496201 80.296101 73.9704 0 0 0
101 1 1 -1.05 67.496201 80.296101 82.50370000000001 0 0 0
102 1 1 -1.05 67.496201 82.50370000000001 71.763 0 0 0
103 1 1 -1.05 67.496201 82.50370000000001 80.296101 0 0 0
104 1 1 -1.05 67.496201 84.56280100000001 69.703701 0 0 0
105 1 1 -1.05 67.496201 84.56280100000001 78.237 0 0 0
106 4 5 1.05 67.5334 65.4 69.66669999999999 0 0 0
107 5 6 1.05 67.5334 65.4 78.200001 0 0 0
108 1 2 1.05 67.5334 67.5334 71.799999 0 0 0
109 1 2 1.05 67.5334 67.5334 80.333298 0 0 0
110 4 5 1.05 67.5334 69.66669999999999 65.4 0 0 0
111 1 2 1.05 67.5334 69.66669999999999 73.93339900000001 0 0 0
112 1 2 1.05 67.5334 69.66669999999999 82.466599 0 0 0
113 1 2 1.05 67.5334 71.799999 67.5334 0 0 0
114 1 2 1.05 67.5334 71.799999 76.06660099999999 0 0 0
115 5 6 1.05 67.5334 71.799999 84.599998 0 0 0
116 1 2 1.05 67.5334 73.93339900000001 69.66669999999999 0 0 0
117 1 2 1.05 67.5334 73.93339900000001 78.200001 0 0 0
118 1 2 1.05 67.5334 76.06660099999999 71.799999 0 0 0
119 1 2 1.05 67.5334 76.06660099999999 80.333298 0 0 0
120 5 6 1.05 67.5334 78.200001 65.4 0 0 0
121 1 2 1.05 67.5334 78.200001 73.93339900000001 0 0 0
122 1 2 1.05 67.5334 78.200001 82.466599 0 0 0
123 1 2 1.05 67.5334 80.333298 67.5334 0 0 0
124 1 2 1.05 67.5334 80.333298 76.06660099999999 0 0 0
125 4 5 1.05 67.5334 80.333298 84.599998 0 0 0
126 1 2 1.05 67.5334 82.466599 69.66669999999999 0 0 0
127 1 2 1.05 67.5334 82.466599 78.200001 0 0 0
128 5 6 1.05 67.5334 84.599998 71.799999 0 0 0
129 4 5 1.05 67.5334 84.599998 80.333298 0 0 0
130 1 1 -1.05 67.5704 65.3629 76.103701 0 0 0
131 1 1 -1.05 67.5704 67.5704 73.896299 0 0 0
132 1 1 -1.05 67.5704 67.5704 82.429501 0 0 0
133 1 1 -1.05 67.5704 69.62960100000001 71.837101 0 0 0
134 1 1 -1.05 67.5704 69.62960100000001 80.3703 0 0 0
135 1 1 -1.05 67.5704 71.837101 69.62960100000001 0 0 0
136 1 1 -1.05 67.5704 71.837101 78.1628 0 0 0
137 1 1 -1.05 67.5704 73.896299 67.5704 0 0 0
138 1 1 -1.05 67.5704 73.896299 76.103701 0 0 0
139 1 1 -1.05 67.5704 73.896299 84.637001 0 0 0
140 1 1 -1.05 67.5704 76.103701 65.3629 0 0 0
141 1 1 -1.05 67.5704 76.103701 73.896299 0 0 0
142 1 1 -1.05 67.5704 76.103701 82.429501 0 0 0
143 1 1 -1.05 67.5704 78.1628 71.837101 0 0 0
144 1 1 -1.05 67.5704 78.1628 80.3703 0 0 0
145 1 1 -1.05 67.5704 80.3703 69.62960100000001 0 0 0
146 1 1 -1.05 67.5704 80.3703 78.1628 0 0 0
147 1 1 -1.05 67.5704 82.429501 67.5704 0 0 0
148 1 1 -1.05 67.5704 82.429501 76.103701 0 0 0
149 1 1 -1.05 67.5704 84.637001 73.896299 0 0 0
150 2 3 1.05 68.6 64.333401 72.866699 0 0 0
151 1 2 1.05 68.6 68.6 68.6 0 0 0
152 1 2 1.05 68.6 68.6 77.133301 0 0 0
153 2 3 1.05 68.6 72.866699 64.333401 0 0 0
154 1 2 1.05 68.6 72.866699 72.866699 0 0 0
155 1 2 1.05 68.6 72.866699 81.400002 0 0 0
156 1 2 1.05 68.6 77.133301 68.6 0 0 0
157 1 2 1.05 68.6 77.133301 77.133301 0 0 0
158 2 3 1.05 68.6 77.133301 85.66659899999999 0 0 0
159 1 2 1.05 68.6 81.400002 72.866699 0 0 0
160 1 2 1.05 68.6 81.400002 81.400002 0 0 0
161 2 3 1.05 68.6 85.66659899999999 77.133301 0 0 0
162 1 1 -1.05 69.62960100000001 63.3038 76.103701 0 0 0
163 1 1 -1.05 69.62960100000001 65.3629 69.62960100000001 0 0 0
164 1 1 -1.05 69.62960100000001 65.3629 78.1628 0 0 0
165 1 1 -1.05 69.62960100000001 67.5704 71.837101 0 0 0
166 1 1 -1.05 69.62960100000001 67.5704 80.3703 0 0 0
167 1 1 -1.05 69.62960100000001 69.62960100000001 65.3629 0 0 0
168 1 1 -1.05 69.62960100000001 69.62960100000001 73.896299 0 0 0
169 1 1 -1.05 69.62960100000001 69.62960100000001 82.429501 0 0 0
170 1 1 -1.05 69.62960100000001 71.837101 67.5704 0 0 0
171 1 1 -1.05 69.62960100000001 71.837101 76.103701 0 0 0
172 1 1 -1.05 69.62960100000001 71.837101 84.637001 0 0 0
173 1 1 -1.05 69.62960100000001 73.896299 69.62960100000001 0 0 0
174 1 1 -1.05 69.62960100000001 73.896299 78.1628 0 0 0
175 1 1 -1.05 69.62960100000001 73.896299 86.696201 0 0 0
176 1 1 -1.05 69.62960100000001 76.103701 63.3038 0 0 0
177 1 1 -1.05 69.62960100000001 76.103701 71.837101 0 0 0
178 1 1 -1.05 69.62960100000001 76.103701 80.3703 0 0 0
179 1 1 -1.05 69.62960100000001 78.1628 65.3629 0 0 0
180 1 1 -1.05 69.62960100000001 78.1628 73.896299 0 0 0
181 1 1 -1.05 69.62960100000001 78.1628 82.429501 0 0 0
182 1 1 -1.05 69.62960100000001 80.3703 67.5704 0 0 0
183 1 1 -1.05 69.62960100000001 80.3703 76.103701 0 0 0
184 1 1 -1.05 69.62960100000001 80.3703 84.637001 0 0 0
185 1 1 -1.05 69.62960100000001 82.429501 69.62960100000001 0 0 0
186 1 1 -1.05 69.62960100000001 82.429501 78.1628 0 0 0
187 1 1 -1.05 69.62960100000001 84.637001 71.837101 0 0 0
188 1 1 -1.05 69.62960100000001 84.637001 80.3703 0 0 0
189 1 1 -1.05 69.62960100000001 86.696201 73.896299 0 0 0
190 4 5 1.05 69.66669999999999 63.2667 78.200001 0 0 0
191 4 5 1.05 69.66669999999999 65.4 67.5334 0 0 0
192 1 2 1.05 69.66669999999999 65.4 76.06660099999999 0 0 0
193 4 5 1.05 69.66669999999999 67.5334 65.4 0 0 0
194 1 2 1.05 69.66669999999999 67.5334 73.93339900000001 0 0 0
195 1 2 1.05 69.66669999999999 67.5334 82.466599 0 0 0
196 1 2 1.05 69.66669999999999 69.66669999999999 71.799999 0 0 0
197 1 2 1.05 69.66669999999999 69.66669999999999 80.333298 0 0 0
198 1 2 1.05 69.66669999999999 71.799999 69.66669999999999 0 0 0
199 1 2 1.05 69.66669999999999 71.799999 78.200001 0 0 0
200 4 5 1.05 69.66669999999999 71.799999 86.733299 0 0 0
201 1 2 1.05 69.66669999999999 73.93339900000001 67.5334 0 0 0
202 1 2 1.05 69.66669999999999 73.93339900000001 76.06660099999999 0 0 0
203 1 2 1.05 69.66669999999999 73.93339900000001 84.599998 0 0 0
204 1 2 1.05 69.66669999999999 76.06660099999999 65.4 0 0 0
205 1 2 1.05 69.66669999999999 76.06660099999999 73.93339900000001 0 0 0
206 1 2 1.05 69.66669999999999 76.06660099999999 82.466599 0 0 0
207 4 5 1.05 69.66669999999999 78.200001 63.2667 0 0 0
208 1 2 1.05 69.66669999999999 78.200001 71.799999 0 0 0
209 1 2 1.05 69.66669999999999 78.200001 80.333298 0 0 0
210 1 2 1.05 69.66669999999999 80.333298 69.66669999999999 0 0 0
211 1 2 1.05 69.66669999999999 80.333298 78.200001 0 0 0
212 1 2 1.05 69.66669999999999 82.466599 67.5334 0 0 0
213 1 2 1.05 69.66669999999999 82.466599 76.06660099999999 0 0 0
214 4 5 1.05 69.66669999999999 82.466599 84.599998 0 0 0
215 1 2 1.05 69.66669999999999 84.599998 73.93339900000001 0 0 0
216 4 5 1.05 69.66669999999999 84.599998 82.466599 0 0 0
217 4 5 1.05 69.66669999999999 86.733299 71.799999 0 0 0
218 1 1 -1.05 69.703701 65.43719899999999 73.9704 0 0 0
219 1 1 -1.05 69.703701 65.43719899999999 82.50370000000001 0 0 0
220 1 1 -1.05 69.703701 67.496201 67.496201 0 0 0
221 1 1 -1.05 69.703701 67.496201 76.029499 0 0 0
222 1 1 -1.05 69.703701 67.496201 84.56280100000001 0 0 0
223 1 1 -1.05 69.703701 69.703701 69.703701 0 0 0
224 1 1 -1.05 69.703701 69.703701 78.237 0 0 0
225 1 1 -1.05 69.703701 71.763 71.763 0 0 0
226 1 1 -1.05 69.703701 71.763 80.296101 0 0 0
227 1 1 -1.05 69.703701 73.9704 65.43719899999999 0 0 0
228 1 1 -1.05 69.703701 73.9704 73.9704 0 0 0
229 1 1 -1.05 69.703701 73.9704 82.50370000000001 0 0 0
230 1 1 -1.05 69.703701 76.029499 67.496201 0 0 0
231 1 1 -1.05 69.703701 76.029499 76.029499 0 0 0
232 1 1 -1.05 69.703701 76.029499 84.56280100000001 0 0 0
233 1 1 -1.05 69.703701 78.237 69.703701 0 0 0
234 1 1 -1.05 69.703701 78.237 78.237 0 0 0
235 1 1 -1.05 69.703701 80.296101 71.763 0 0 0
236 1 1 -1.05 69.703701 80.296101 80.296101 0 0 0
237 1 1 -1.05 69.703701 82.50370000000001 65.43719899999999 0 0 0
238 1 1 -1.05 69.703701 82.50370000000001 73.9704 0 0 0
239 1 1 -1.05 69.703701 82.50370000000001 82.50370000000001 0 0 0
240 1 1 -1.05 69.703701 84.56280100000001 67.496201 0 0 0
241 1 1 -1.05 69.703701 84.56280100000001 76.029499 0 0 0
242 1 2 1.05 70.7334 66.4667 70.7334 0 0 0
243 1 2 1.05 70.7334 66.4667 79.2666 0 0 0
244 1 2 1.05 70.7334 70.7334 66.4667 0 0 0
245 1 2 1.05 70.7334 70.7334 75 0 0 0
246 1 2 1.05 70.7334 70.7334 83.53330199999999 0 0 0
247 1 2 1.05 70.7334 75 70.7334 0 0 0
248 1 2 1.05 70.7334 75 79.2666 0 0 0
249 1 2 1.05 70.7334 79.2666 66.4667 0 0 0
250 1 2 1.05 70.7334 79.2666 75 0 0 0
251 1 2 1.05 70.7334 79.2666 83.53330199999999 0 0 0
252 1 2 1.05 70.7334 83.53330199999999 70.7334 0 0 0
253 1 2 1.05 70.7334 83.53330199999999 79.2666 0 0 0
254 1 1 -1.05 71.763 63.2296 78.237 0 0 0
255 1 1 -1.05 71.763 65.43719899999999 67.496201 0 0 0
256 1 1 -1.05 71.763 65.43719899999999 76.029499 0 0 0
257 1 1 -1.05 71.763 67.496201 65.43719899999999 0 0 0
258 1 1 -1.05 71.763 67.496201 73.9704 0 0 0
259 1 1 -1.05 71.763 67.496201 82.50370000000001 0 0 0
260 1 1 -1.05 71.763 69.703701 71.763 0 0 0
261 1 1 -1.05 71.763 69.703701 80.296101 0 0 0
262 1 1 -1.05 71.763 71.763 69.703701 0 0 0
263 1 1 -1.05 71.763 71.763 78.237 0 0 0
264 1 1 -1.05 71.763 71.763 86.770302 0 0 0
265 1 1 -1.05 71.763 73.9704 67.496201 0 0 0
266 1 1 -1.05 71.763 73.9704 76.029499 0 0 0
267 1 1 -1.05 71.763 73.9704 84.56280100000001 0 0 0
268 1 1 -1.05 71.763 76.029499 65.43719899999999 0 0 0
269 1 1 -1.05 71.763 76.029499 73.9704 0 0 0
270 1 1 -1.05 71.763 76.029499 82.50370000000001 0 0 0
271 1 1 -1.05 71.763 78.237 63.2296 0 0 0
272 1 1 -1.05 71.763 78.237 71.763 0 0 0
273 1 1 -1.05 71.763 78.237 80.296101 0 0 0
274 1 1 -1.05 71.763 80.296101 69.703701 0 0 0
275 1 1 -1.05 71.763 80.296101 78.237 0 0 0
276 1 1 -1.05 71.763 82.50370000000001 67.496201 0 0 0
277 1 1 -1.05 71.763 82.50370000000001 76.029499 0 0 0
278 1 1 -1.05 71.763 82.50370000000001 84.56280100000001 0 0 0
279 1 1 -1.05 71.763 84.56280100000001 73.9704 0 0 0
280 1 1 -1.05 71.763 84.56280100000001 82.50370000000001 0 0 0
281 1 1 -1.05 71.763 86.770302 71.763 0 0 0
282 4 5 1.05 71.799999 63.2667 71.799999 0 0 0
283 4 5 1.05 71.799999 63.2667 80.333298 0 0 0
284 1 2 1.05 71.799999 65.4 73.93339900000001 0 0 0
285 5 6 1.05 71.799999 65.4 82.466599 0 0 0
286 1 2 1.05 71.799999 67.5334 67.5334 0 0 0
287 1 2 1.05 71.799999 67.5334 76.06660099999999 0 0 0
288 5 6 1.05 71.799999 67.5334 84.599998 0 0 0
289 1 2 1.05 71.799999 69.66669999999999 69.66669999999999 0 0 0
290 1 2 1.05 71.799999 69.66669999999999 78.200001 0 0 0
291 4 5 1.05 71.799999 69.66669999999999 86.733299 0 0 0
292 4 5 1.05 71.799999 71.799999 63.2667 0 0 0
293 1 2 1.05 71.799999 71.799999 71.799999 0 0 0
294 1 2 1.05 71.799999 71.799999 80.333298 0 0 0
295 1 2 1.05 71.799999 73.93339900000001 65.4 0 0 0
296 1 2 1.05 71.799999 73.93339900000001 73.93339900000001 0 0 0
297 1 2 1.05 71.799999 73.93339900000001 82.466599 0 0 0
298 1 2 1.05 71.799999 76.06660099999999 67.5334 0 0 0
299 1 2 1.05 71.799999 76.06660099999999 76.06660099999999 0 0 0
300 1 2 1.05 71.799999 76.06660099999999 84.599998 0 0 0
301 1 2 1.05 71.799999 78.200001 69.66669999999999 0 0 0
302 1 2 1.05 71.799999 78.200001 78.200001 0 0 0
303 4 5 1.05 71.799999 78.200001 86.733299 0 0 0
304 4 5 1.05 71.799999 80.333298 63.2667 0 0 0
305 1 2 1.05 71.799999 80.333298 71.799999 0 0 0
306 1 2 1.05 71.799999 80.333298 80.333298 0 0 0
307 5 6 1.05 71.799999 82.466599 65.4 0 0 0
308 1 2 1.05 71.799999 82.466599 73.93339900000001 0 0 0
309 1 2 1.05 71.799999 82.466599 82.466599 0 0 0
310 5 6 1.05 71.799999 84.599998 67.5334 0 0 0
311 1 2 1.05 71.799999 84.599998 76.06660099999999 0 0 0
312 4 5 1.05 71.799999 86.733299 69.66669999999999 0 0 0
313 4 5 1.05 71.799999 86.733299 78.200001 0 0 0
314 1 1 -1.05 71.837101 63.3038 73.896299 0 0 0
315 1 1 -1.05 71.837101 65.3629 71.837101 0 0 0
316 1 1 -1.05 71.837101 65.3629 80.3703 0 0 0
317 1 1 -1.05 71.837101 67.5704 69.62960100000001 0 0 0
318 1 1 -1.05 71.837101 67.5704 78.1628 0 0 0
319 1 1 -1.05 71.837101 69.62960100000001 67.5704 0 0 0
320 1 1 -1.05 71.837101 69.62960100000001 76.103701 0 0 0
321 1 1 -1.05 71.837101 69.62960100000001 84.637001 0 0 0
322 1 1 -1.05 71.837101 71.837101 65.3629 0 0 0
323 1 1 -1.05 71.837101 71.837101 73.896299 0 0 0
324 1 1 -1.05 71.837101 71.837101 82.429501 0 0 0
325 1 1 -1.05 71.837101 73.896299 63.3038 0 0 0
326 1 1 -1.05 71.837101 73.896299 71.837101 0 0 0
327 1 1 -1.05 71.837101 73.896299 80.3703 0 0 0
328 1 1 -1.05 71.837101 76.103701 69.62960100000001 0 0 0
329 1 1 -1.05 71.837101 76.103701 78.1628 0 0 0
330 1 1 -1.05 71.837101 76.103701 86.696201 0 0 0
331 1 1 -1.05 71.837101 78.1628 67.5704 0 0 0
332 1 1 -1.05 71.837101 78.1628 76.103701 0 0 0
333 1 1 -1.05 71.837101 78.1628 84.637001 0 0 0
334 1 1 -1.05 71.837101 80.3703 65.3629 0 0 0
335 1 1 -1.05 71.837101 80.3703 73.896299 0 0 0
336 1 1 -1.05 71.837101 80.3703 82.429501 0 0 0
337 1 1 -1.05 71.837101 82.429501 71.837101 0 0 0
338 1 1 -1.05 71.837101 82.429501 80.3703 0 0 0
339 1 1 -1.05 71.837101 84.637001 69.62960100000001 0 0 0
340 1 1 -1.05 71.837101 84.637001 78.1628 0 0 0
341 1 1 -1.05 71.837101 86.696201 76.103701 0 0 0
342 2 3 1.05 72.866699 64.333401 68.6 0 0 0
343 1 2 1.05 72.866699 64.333401 77.133301 0 0 0
344 2 3 1.05 72.866699 68.6 64.333401 0 0 0
345 1 2 1.05 72.866699 68.6 72.866699 0 0 0
346 1 2 1.05 72.866699 68.6 81.400002 0 0 0
347 1 2 1.05 72.866699 72.866699 68.6 0 0 0
348 1 2 1.05 72.866699 72.866699 77.133301 0 0 0
349 1 2 1.05 72.866699 72.866699 85.66659899999999 0 0 0
350 1 2 1.05 72.866699 77.133301 64.333401 0 0 0
351 1 2 1.05 72.866699 77.133301 72.866699 0 0 0
352 1 2 1.05 72.866699 77.133301 81.400002 0 0 0
353 1 2 1.05 72.866699 81.400002 68.6 0 0 0
354 1 2 1.05 72.866699 81.400002 77.133301 0 0 0
355 2 3 1.05 72.866699 81.400002 85.66659899999999 0 0 0
356 1 2 1.05 72.866699 85.66659899999999 72.866699 0 0 0
357 2 3 1.05 72.866699 85.66659899999999 81.400002 0 0 0
358 1 1 -1.05 73.896299 63.3038 71.837101 0 0 0
359 1 1 -1.05 73.896299 63.3038 80.3703 0 0 0
360 1 1 -1.05 73.896299 65.3629 73.896299 0 0 0
361 1 1 -1.05 73.896299 65.3629 82.429501 0 0 0
362 1 1 -1.05 73.896299 67.5704 67.5704 0 0 0
363 1 1 -1.05 73.896299 67.5704 76.103701 0 0 0
364 1 1 -1.05 73.896299 67.5704 84.637001 0 0 0
365 1 1 -1.05 73.896299 69.62960100000001 69.62960100000001 0 0 0
366 1 1 -1.05 73.896299 69.62960100000001 78.1628 0 0 0
367 1 1 -1.05 73.896299 69.62960100000001 86.696201 0 0 0
368 1 1 -1.05 73.896299 71.837101 63.3038 0 0 0
369 1 1 -1.05 73.896299 71.837101 71.837101 0 0 0
370 1 1 -1.05 73.896299 71.837101 80.3703 0 0 0
371 1 1 -1.05 73.896299 73.896299 65.3629 0 0 0
372 1 1 -1.05 73.896299 73.896299 73.896299 0 0 0
373 1 1 -1.05 73.896299 73.896299 82.429501 0 0 0
374 1 1 -1.05 73.896299 76.103701 67.5704 0 0 0
375 1 1 -1.05 73.896299 76.103701 76.103701 0 0 0
376 1 1 -1.05 73.896299 76.103701 84.637001 0 0 0
377 1 1 -1.05 73.896299 78.1628 69.62960100000001 0 0 0
378 1 1 -1.05 73.896299 78.1628 78.1628 0 0 0
379 1 1 -1.05 73.896299 78.1628 86.696201 0 0 0
380 1 1 -1.05 73.896299 80.3703 63.3038 0 0 0
381 1 1 -1.05 73.896299 80.3703 71.837101 0 0 0
382 1 1 -1.05 73.896299 80.3703 80.3703 0 0 0
383 1 1 -1.05 73.896299 82.429501 65.3629 0 0 0
384 1 1 -1.05 73.896299 82.429501 73.896299 0 0 0
385 1 1 -1.05 73.896299 82.429501 82.429501 0 0 0
386 1 1 -1.05 73.896299 84.637001 67.5704 0 0 0
387 1 1 -1.05 73.896299 84.637001 76.103701 0 0 0
388 1 1 -1.05 73.896299 86.696201 69.62960100000001 0 0 0
389 1 1 -1.05 73.896299 86.696201 78.1628 0 0 0
390 6 7 1.05 73.93339900000001 63.2667 73.93339900000001 0 0 0
391 1 2 1.05 73.93339900000001 65.4 71.799999 0 0 0
392 1 2 1.05 73.93339900000001 65.4 80.333298 0 0 0
393 1 2 1.05 73.93339900000001 67.5334 69.66669999999999 0 0 0
394 1 2 1.05 73.93339900000001 67.5334 78.200001 0 0 0
395 1 2 1.05 73.93339900000001 69.66669999999999 67.5334 0 0 0
396 1 2 1.05 73.93339900000001 69.66669999999999 76.06660099999999 0 0 0
397 1 2 1.05 73.93339900000001 69.66669999999999 84.599998 0 0 0
398 1 2 1.05 73.93339900000001 71.799999 65.4 0 0 0
399 1 2 1.05 73.93339900000001 71.799999 73.93339900000001 0 0 0
400 1 2 1.05 73.93339900000001 71.799999 82.466599 0 0 0
401 6 7 1.05 73.93339900000001 73.93339900000001 63.2667 0 0 0
402 1 2 1.05 73.93339900000001 73.93339900000001 71.799999 0 0 0
403 1 2 1.05 73.93339900000001 73.93339900000001 80.333298 0 0 0
404 1 2 1.05 73.93339900000001 76.06660099999999 69.66669999999999 0 0 0
405 1 2 1.05 73.93339900000001 76.06660099999999 78.200001 0 0 0
406 6 7 1.05 73.93339900000001 76.06660099999999 86.733299 0 0 0
407 1 2 1.05 73.93339900000001 78.200001 67.5334 0 0 0
408 1 2 1.05 73.93339900000001 78.200001 76.06660099999999 0 0 0
409 1 2 1.05 73.93339900000001 78.200001 84.599998 0 0 0
410 1 2 1.05 73.93339900000001 80.333298 65.4 0 0 0
411 1 2 1.05 73.93339900000001 80.333298 73.93339900000001 0 0 0
412 1 2 1.05 73.93339900000001 80.333298 82.466599 0 0 0
413 1 2 1.05 73.93339900000001 82.466599 71.799999 0 0 0
414 1 2 1.05 73.93339900000001 82.466599 80.333298 0 0 0
415 1 2 1.05 73.93339900000001 84.599998 69.66669999999999 0 0 0
416 1 2 1.05 73.93339900000001 84.599998 78.200001 0 0 0
417 6 7 1.05 73.93339900000001 86.733299 76.06660099999999 0 0 0
418 1 1 -1.05 73.9704 63.2296 76.029499 0 0 0
419 1 1 -1.05 73.9704 65.43719899999999 69.703701 0 0 0
420 1 1 -1.05 73.9704 65.43719899999999 78.237 0 0 0
421 1 1 -1.05 73.9704 67.496201 71.763 0 0 0
422 1 1 -1.05 73.9704 67.496201 80.296101 0 0 0
423 1 1 -1.05 73.9704 69.703701 65.43719899999999 0 0 0
424 1 1 -1.05 73.9704 69.703701 73.9704 0 0 0
425 1 1 -1.05 73.9704 69.703701 82.50370000000001 0 0 0
426 1 1 -1.05 73.9704 71.763 67.496201 0 0 0
427 1 1 -1.05 73.9704 71.763 76.029499 0 0 0
428 1 1 -1.05 73.9704 71.763 84.56280100000001 0 0 0
429 1 1 -1.05 73.9704 73.9704 69.703701 0 0 0
430 1 1 -1.05 73.9704 73.9704 78.237 0 0 0
431 1 1 -1.05 73.9704 73.9704 86.770302 0 0 0
432 1 1 -1.05 73.9704 76.029499 63.2296 0 0 0
433 1 1 -1.05 73.9704 76.029499 71.763 0 0 0
434 1 1 -1.05 73.9704 76.029499 80.296101 0 0 0
435 1 1 -1.05 73.9704 78.237 65.43719899999999 0 0 0
436 1 1 -1.05 73.9704 78.237 73.9704 0 0 0
437 1 1 -1.05 73.9704 78.237 82.50370000000001 0 0 0
438 1 1 -1.05 73.9704 80.296101 67.496201 0 0 0
439 1 1 -1.05 73.9704 80.296101 76.029499 0 0 0
440 1 1 -1.05 73.9704 80.296101 84.56280100000001 0 0 0
441 1 1 -1.05 73.9704 82.50370000000001 69.703701 0 0 0
442 1 1 -1.05 73.9704 82.50370000000001 78.237 0 0 0
443 1 1 -1.05 73.9704 84.56280100000001 71.763 0 0 0
444 1 1 -1.05 73.9704 84.56280100000001 80.296101 0 0 0
445 1 1 -1.05 73.9704 86.770302 73.9704 0 0 0
446 3 4 1.05 75 66.4667 66.4667 0 0 0
447 1 2 1.05 75 66.4667 75 0 0 0
448 3 4 1.05 75 66.4667 83.53330199999999 0 0 0
449 1 2 1.05 75 70.7334 70.7334 0 0 0
450 1 2 1.05 75 70.7334 79.2666 0 0 0
451 1 2 1.05 75 75 66.4667 0 0 0
452 1 2 1.05 75 75 75 0 0 0
453 1 2 1.05 75 75 83.53330199999999 0 0 0
454 1 2 1.05 75 79.2666 70.7334 0 0 0
455 1 2 1.05 75 79.2666 79.2666 0 0 0
456 3 4 1.05 75 83.53330199999999 66.4667 0 0 0
457 1 2 1.05 75 83.53330199999999 75 0 0 0
458 3 4 1.05 75 83.53330199999999 83.53330199999999 0 0 0
459 1 1 -1.05 76.029499 63.2296 73.9704 0 0 0
460 1 1 -1.05 76.029499 65.43719899999999 71.763 0 0 0
461 1 1 -1.05 76.029499 65.43719899999999 80.296101 0 0 0
462 1 1 -1.05 76.029499 67.496201 69.703701 0 0 0
463 1 1 -1.05 76.029499 67.496201 78.237 0 0 0
464 1 1 -1.05 76.029499 69.703701 67.496201 0 0 0
465 1 1 -1.05 76.029499 69.703701 76.029499 0 0 0
466 1 1 -1.05 76.029499 69.703701 84.56280100000001 0 0 0
467 1 1 -1.05 76.029499 71.763 65.43719899999999 0 0 0
468 1 1 -1.05 76.029499 71.763 73.9704 0 0 0
469 1 1 -1.05 76.029499 71.763 82.50370000000001 0 0 0
470 1 1 -1.05 76.029499 73.9704 63.2296 0 0 0
471 1 1 -1.05 76.029499 73.9704 71.763 0 0 0
472 1 1 -1.05 76.029499 73.9704 80.296101 0 0 0
473 1 1 -1.05 76.029499 76.029499 69.703701 0 0 0
474 1 1 -1.05 76.029499 76.029499 78.237 0 0 0
475 1 1 -1.05 76.029499 76.029499 86.770302 0 0 0
476 1 1 -1.05 76.029499 78.237 67.496201 0 0 0
477 1 1 -1.05 76.029499 78.237 76.029499 0 0 0
478 1 1 -1.05 76.029499 78.237 84.56280100000001 0 0 0
479 1 1 -1.05 76.029499 80.296101 65.43719899999999 0 0 0
480 1 1 -1.05 76.029499 80.296101 73.9704 0 0 0
481 1 1 -1.05 76.029499 80.296101 82.50370000000001 0 0 0
482 1 1 -1.05 76.029499 82.50370000000001 71.763 0 0 0
483 1 1 -1.05 76.029499 82.50370000000001 80.296101 0 0 0
484 1 1 -1.05 76.029499 84.56280100000001 69.703701 0 0 0
485 1 1 -1.05 76.029499 84.56280100000001 78.237 0 0 0
486 1 1 -1.05 76.029499 86.770302 76.029499 0 0 0
487 6 7 1.05 76.06660099999999 63.2667 76.06660099999999 0 0 0
488 1 2 1.05 76.06660099999999 65.4 69.66669999999999 0 0 0
489 1 2 1.05 76.06660099999999 65.4 78.200001 0 0 0
490 1 2 1.05 76.06660099999999 67.5334 71.799999 0 0 0
491 1 2 1.05 76.06660099999999 67.5334 80.333298 0 0 0
492 1 2 1.05 76.06660099999999 69.66669999999999 65.4 0 0 0
493 1 2 1.05 76.06660099999999 69.66669999999999 73.93339900000001 0 0 0
494 1 2 1.05 76.06660099999999 69.66669999999999 82.466599 0 0 0
495 1 2 1.05 76.06660099999999 71.799999 67.5334 0 0 0
496 1 2 1.05 76.06660099999999 71.799999 76.06660099999999 0 0 0
497 1 2 1.05 76.06660099999999 71.799999 84.599998 0 0 0
498 1 2 1.05 76.06660099999999 73.93339900000001 69.66669999999999 0 0 0
499 1 2 1.05 76.06660099999999 73.93339900000001 78.200001 0 0 0
500 6 7 1.05 76.06660099999999 73.93339900000001 86.733299 0 0 0
501 6 7 1.05 76.06660099999999 76.06660099999999 63.2667 0 0 0
502 1 2 1.05 76.06660099999999 76.06660099999999 71.799999 0 0 0
503 1 2 1.05 76.06660099999999 76.06660099999999 80.333298 0 0 0
504 1 2 1.05 76.06660099999999 78.200001 65.4 0 0 0
505 1 2 1.05 76.06660099999999 78.200001 73.93339900000001 0 0 0
506 1 2 1.05 76.06660099999999 78.200001 82.466599 0 0 0
507 1 2 1.05 76.06660099999999 80.333298 67.5334 0 0 0
508 1 2 1.05 76.06660099999999 80.333298 76.06660099999999 0 0 0
509 1 2 1.05 76.06660099999999 80.333298 84.599998 0 0 0
510 1 2 1.05 76.06660099999999 82.466599 69.66669999999999 0 0 0
511 1 2 1.05 76.06660099999999 82.466599 78.200001 0 0 0
512 1 2 1.05 76.06660099999999 84.599998 71.799999 0 0 0
513 1 2 1.05 76.06660099999999 84.599998 80.333298 0 0 0
514 6 7 1.05 76.06660099999999 86.733299 73.93339900000001 0 0 0
515 1 1 -1.05 76.103701 63.3038 69.62960100000001 0 0 0
516 1 1 -1.05 76.103701 63.3038 78.1628 0 0 0
517 1 1 -1.05 76.103701 65.3629 67.5704 0 0 0
518 1 1 -1.05 76.103701 65.3629 76.103701 0 0 0
519 1 1 -1.05 76.103701 67.5704 65.3629 0 0 0
520 1 1 -1.05 76.103701 67.5704 73.896299 0 0 0
521 1 1 -1.05 76.103701 67.5704 82.429501 0 0 0
522 1 1 -1.05 76.103701 69.62960100000001 63.3038 0 0 0
523 1 1 -1.05 76.103701 69.62960100000001 71.837101 0 0 0
524 1 1 -1.05 76.103701 69.62960100000001 80.3703 0 0 0
525 1 1 -1.05 76.103701 71.837101 69.62960100000001 0 0 0
526 1 1 -1.05 76.103701 71.837101 78.1628 0 0 0
527 1 1 -1.05 76.103701 71.837101 86.696201 0 0 0
528 1 1 -1.05 76.103701 73.896299 67.5704 0 0 0
529 1 1 -1.05 76.103701 73.896299 76.103701 0 0 0
530 1 1 -1.05 76.103701 73.896299 84.637001 0 0 0
531 1 1 -1.05 76.103701 76.103701 65.3629 0 0 0
532 1 1 -1.05 76.103701 76.103701 73.896299 0 0 0
533 1 1 -1.05 76.103701 76.103701 82.429501 0 0 0
534 1 1 -1.05 76.103701 78.1628 63.3038 0 0 0
535 1 1 -1.05 76.103701 78.1628 71.837101 0 0 0
536 1 1 -1.05 76.103701 78.1628 80.3703 0 0 0
537 1 1 -1.05 76.103701 80.3703 69.62960100000001 0 0 0
538 1 1 -1.05 76.103701 80.3703 78.1628 0 0 0
539 1 1 -1.05 76.103701 80.3703 86.696201 0 0 0
540 1 1 -1.05 76.103701 82.429501 67.5704 0 0 0
541 1 1 -1.05 76.103701 82.429501 76.103701 0 0 0
542 1 1 -1.05 76.103701 82.429501 84.637001 0 0 0
543 1 1 -1.05 76.103701 84.637001 73.896299 0 0 0
544 1 1 -1.05 76.103701 84.637001 82.429501 0 0 0
545 1 1 -1.05 76.103701 86.696201 71.837101 0 0 0
546 1 1 -1.05 76.103701 86.696201 80.3703 0 0 0
547 1 2 1.05 77.133301 64.333401 72.866699 0 0 0
548 2 3 1.05 77.133301 64.333401 81.400002 0 0 0
549 1 2 1.05 77.133301 68.6 68.6 0 0 0
550 1 2 1.05 77.133301 68.6 77.133301 0 0 0
551 2 3 1.05 77.133301 68.6 85.66659899999999 0 0 0
552 1 2 1.05 77.133301 72.866699 64.333401 0 0 0
553 1 2 1.05 77.133301 72.866699 72.866699 0 0 0
554 1 2 1.05 77.133301 72.866699 81.400002 0 0 0
555 1 2 1.05 77.133301 77.133301 68.6 0 0 0
556 1 2 1.05 77.133301 77.133301 77.133301 0 0 0
557 1 2 1.05 77.133301 77.133301 85.66659899999999 0 0 0
558 2 3 1.05 77.133301 81.400002 64.333401 0 0 0
559 1 2 1.05 77.133301 81.400002 72.866699 0 0 0
560 1 2 1.05 77.133301 81.400002 81.400002 0 0 0
561 2 3 1.05 77.133301 85.66659899999999 68.6 0 0 0
562 1 2 1.05 77.133301 85.66659899999999 77.133301 0 0 0
563 1 1 -1.05 78.1628 63.3038 76.103701 0 0 0
564 1 1 -1.05 78.1628 65.3629 69.62960100000001 0 0 0
565 1 1 -1.05 78.1628 65.3629 78.1628 0 0 0
566 1 1 -1.05 78.1628 67.5704 71.837101 0 0 0
567 1 1 -1.05 78.1628 67.5704 80.3703 0 0 0
568 1 1 -1.05 78.1628 69.62960100000001 65.3629 0 0 0
569 1 1 -1.05 78.1628 69.62960100000001 73.896299 0 0 0