LAMMPS data file via write_data, version 17 Feb 2022, timestep = 10

1466 atoms
3 atom types

-2.220001 99.540001 xlo xhi
-2.220001 99.540001 ylo yhi
-2.220001 99.540001 zlo zhi

Masses

1 55.845
2 55.845
3 15.9994

Pair Coeffs # lj/cut/coul/cut

1 9.0298e-07 4.9062
2 9.0298e-07 4.9062
3 0.1554 3.16554

Atoms # charge

1 2 1.575 37.74763512724774 37.75209667382774 37.75106093439782 0 0 0
20 3 -1.05 39.409285332444966 37.165972924524745 37.164067720660775 0 0 0
21 2 1.575 46.57955093303503 38.047914102194646 38.04763581107714 0 0 0
32 3 -1.05 47.91771054820487 37.12463735488987 37.12667052203649 0 0 0
226 2 1.575 41.263361865960015 37.272973903290534 37.269302774291354 0 0 0
230 3 -1.05 43.210319564415286 37.28028810018036 37.2762758206733 0 0 0
262 2 1.575 49.733147101332946 37.254477447286895 37.25680856728097 0 0 0
266 3 -1.05 51.72177157912278 37.26174684142382 37.26343569734425 0 0 0
995 2 1.575 55.12130471467243 38.04477182467891 38.04248638621462 0 0 0
1014 3 -1.05 56.260075238151515 37.00527686601436 37.00756738897792 0 0 0
1198 2 1.575 58.102937451842614 37.14686001108031 37.147862966454205 0 0 0
1188 3 -1.05 60.114715076421085 37.206597497601614 37.209211098889234 0 0 0
11 2 1.575 38.04530617138839 46.57534053263549 38.04874743546831 0 0 0
36 3 -1.05 37.16764286126227 39.403880357915334 37.17009472494187 0 0 0
38 3 -1.05 37.1260919459758 47.91887782024049 37.126734505076605 0 0 0
116 2 1.575 37.26879467589049 41.27030838404046 37.27433182292087 0 0 0
119 3 -1.05 37.27819929094076 43.21142917446 37.28237625245276 0 0 0
134 2 1.575 37.2577814499323 49.73132186522808 37.25513968885508 0 0 0
137 3 -1.05 37.2633892682682 51.72089100417108 37.26146219154433 0 0 0
669 2 1.575 38.04453090851665 55.12258785917319 38.045244998873095 0 0 0
702 3 -1.05 37.00724432267254 56.260087954519705 37.00648861758041 0 0 0
780 2 1.575 37.148356143918 58.10219901315529 37.1476644428289 0 0 0
9 3 -1.05 39.29622001264202 45.396053296183226 37.19532701119568 0 0 0
10 3 -1.05 45.39637692209466 39.297390290232165 37.192727146346435 0 0 0
16 3 -1.05 45.32909294368624 47.74321411603911 37.25566674908659 0 0 0
26 3 -1.05 47.74062362333147 45.3336395843363 37.24052429013808 0 0 0
27 2 1.575 46.55291660904384 46.55078626520367 38.06734009320113 0 0 0
114 2 1.575 40.26378288051629 40.26783658206097 37.96104828038063 0 0 0
117 2 1.575 39.24778604086408 43.43385172635655 37.248780955728826 0 0 0
121 3 -1.05 39.179841074567754 41.467358963645665 37.0594796613467 0 0 0
152 2 1.575 45.5156424630055 41.234695967424784 37.224307965507165 0 0 0
153 2 1.575 47.63269460744996 43.374738906217374 37.22628902042047 0 0 0
155 3 -1.05 45.67870626111767 43.217608777510506 37.30760483539466 0 0 0
157 3 -1.05 47.45274538551844 41.431768020510255 37.2967544113492 0 0 0
229 2 1.575 43.437166786901734 39.24750244831336 37.25195521810927 0 0 0
232 3 -1.05 41.470651196068964 39.179874323778854 37.05943175713935 0 0 0
244 2 1.575 41.23447611200889 45.51675142355582 37.21776008306145 0 0 0
247 2 1.575 43.37093588002254 47.633743598069465 37.22754160331584 0 0 0
248 3 -1.05 43.21907360421198 45.68123704783826 37.30531832294687 0 0 0
250 3 -1.05 41.431113944592944 47.45542869933341 37.29609742128982 0 0 0
337 2 1.575 42.43956109117493 42.438876899194135 38.033439137756005 0 0 0
345 3 -1.05 41.2032167226573 43.564900345933864 37.17097477809204 0 0 0
346 3 -1.05 43.5639649118751 41.203309843381874 37.17223229734585 0 0 0
135 2 1.575 39.225657539361414 51.949618761039105 37.21843572004406 0 0 0
139 3 -1.05 39.16054972099643 50.01002532726162 37.268338706694166 0 0 0
170 2 1.575 45.44852484351054 49.70597455381427 37.23775463318553 0 0 0
171 2 1.575 47.613721924138645 51.86544011403921 37.23593712224881 0 0 0
173 3 -1.05 45.64766934264145 51.67641713598018 37.290570819681925 0 0 0
175 3 -1.05 47.417008251568376 49.89645407888863 37.29507831511618 0 0 0
347 2 1.575 42.267423640686985 50.790366308943376 38.05435777360738 0 0 0
355 3 -1.05 41.164510555340904 52.05026053860367 37.188800343154746 0 0 0
356 3 -1.05 43.48111111484286 49.58355907745849 37.240984265246055 0 0 0
668 3 -1.05 39.29106097551154 53.891689317331 37.26142734029529 0 0 0
678 3 -1.05 45.26913161471207 56.154978084430866 37.20063833208766 0 0 0
684 3 -1.05 43.428241396889014 58.02985812548752 37.25039090668162 0 0 0
686 3 -1.05 47.73172020127556 53.83157508049555 37.25582749485973 0 0 0
687 2 1.575 46.53758867564334 55.05645104687384 38.0584498947316 0 0 0
785 3 -1.05 39.047620270438166 58.27155746262517 37.177135774411916 0 0 0
816 2 1.575 45.37129365723827 58.09461317050431 37.221486726658114 0 0 0
821 3 -1.05 47.30894360300649 58.16285188238388 37.26321494684423 0 0 0
863 3 -1.05 41.38903375299093 55.92957336406106 37.262829576193106 0 0 0
865 3 -1.05 43.17463441119875 54.14446836298769 37.28178267658153 0 0 0
866 2 1.575 43.32908523505961 56.0921477088755 37.21015695263191 0 0 0
875 2 1.575 41.22819343522188 53.98899898885347 37.21092423169371 0 0 0
265 2 1.575 51.948445257262875 39.22485980318821 37.21496990920105 0 0 0
268 3 -1.05 50.008960238136666 39.15659350731612 37.26689357007773 0 0 0
280 2 1.575 49.70903296153904 45.457451724031856 37.243871426381574 0 0 0
283 2 1.575 51.8685526374674 47.61804409993198 37.244216424737104 0 0 0
284 3 -1.05 51.6698073384338 45.656031966417515 37.30396692327609 0 0 0
286 3 -1.05 49.896853848834645 47.430742166848404 37.298760546402704 0 0 0
357 2 1.575 50.79393776496925 42.27109153094173 38.04384672833419 0 0 0
365 3 -1.05 49.581097316619804 43.4862109563362 37.23955852854881 0 0 0
366 3 -1.05 52.05392822444756 41.16221990452798 37.18283135995207 0 0 0
990 3 -1.05 53.89351688052021 39.2876204743033 37.24835147412783 0 0 0
992 3 -1.05 53.832360431239856 47.73689640060337 37.23483466666463 0 0 0
1003 3 -1.05 56.15991434812187 45.27038212272414 37.18308827977386 0 0 0
1005 2 1.575 55.0497338258505 46.533660131725235 38.0295436536638 0 0 0
1015 3 -1.05 58.032774643108354 43.430343350575875 37.25237796018005 0 0 0
1102 2 1.575 53.99384024251235 41.22829832441306 37.208444851820914 0 0 0
1103 2 1.575 56.09364263805783 43.33322379806898 37.21326017922588 0 0 0
1105 3 -1.05 54.15235729248307 43.17062122511807 37.292554116861446 0 0 0
1107 3 -1.05 55.93733265767369 41.38913774158959 37.25874300294671 0 0 0
1141 3 -1.05 58.161306684972615 47.30887504975423 37.26849597135742 0 0 0
1152 2 1.575 58.093285454629736 45.369907663368345 37.218089238986316 0 0 0
1183 3 -1.05 58.27270113811021 39.04602825462077 37.17416627939332 0 0 0
367 2 1.575 50.76873328965713 50.77070344242056 38.03968910292388 0 0 0
375 3 -1.05 49.56877657822755 51.981870166259505 37.21861048099386 0 0 0
376 3 -1.05 51.98507054485379 49.576166711748655 37.22326641747275 0 0 0
797 3 -1.05 49.85334126273283 55.88890636703582 37.29207970343929 0 0 0
799 3 -1.05 51.62882090121637 54.108388765675144 37.31638402717665 0 0 0
800 2 1.575 51.7973010399033 56.08406174668412 37.22455958316381 0 0 0
803 2 1.575 49.68617904654479 53.939276834616614 37.23604863521007 0 0 0
837 3 -1.05 51.9200863053747 58.02529590004778 37.18121428355514 0 0 0
1081 3 -1.05 58.02594317827558 51.91963376210239 37.183504678742054 0 0 0
1120 2 1.575 53.93962027225456 49.68481875172221 37.23577908779293 0 0 0
1121 2 1.575 56.08457580814975 51.794869116326545 37.22149617581984 0 0 0
1123 3 -1.05 54.10887270516483 51.626591382382884 37.32010902037326 0 0 0
1125 3 -1.05 55.88973476236781 49.84933117274336 37.29518488317681 0 0 0
1314 3 -1.05 53.751442662733446 56.120576038523 37.16557549215675 0 0 0
1320 3 -1.05 56.11858250610564 53.749036604440704 37.16758608798157 0 0 0
1321 2 1.575 54.878929859769435 54.8805418626441 38.02546016646999 0 0 0
1338 3 -1.05 58.141863099483295 55.853632909492056 37.060502491413494 0 0 0
1343 2 1.575 57.05836630256636 57.05480031581625 37.96048384433794 0 0 0
1344 2 1.575 58.07036605408882 53.884779511742444 37.25017867290519 0 0 0
1394 3 -1.05 55.850540508372575 58.14197941027771 37.059466055194996 0 0 0
1401 2 1.575 53.88114875527613 58.07321806980259 37.251067258259326 0 0 0
1013 2 1.575 59.27404690276854 42.20037073492177 38.04110167062743 0 0 0
1016 3 -1.05 60.315257192906834 41.06204296001271 37.00867464728459 0 0 0
1143 3 -1.05 60.053598667888025 45.59560506072647 37.27131341494419 0 0 0
1149 2 1.575 60.06198067897729 47.584592052449565 37.26041553144896 0 0 0
1190 2 1.575 60.17145673851304 39.21676416288891 37.14900750427781 0 0 0
1017 2 1.575 59.27339753342094 50.74794355370854 38.04518961364996 0 0 0
1082 3 -1.05 60.19282141750142 49.3981209150055 37.13624658011092 0 0 0
1340 3 -1.05 60.04218093199863 54.108057620508355 37.2844497880975 0 0 0
1341 2 1.575 60.05219720509669 56.04832995591284 37.27487871142121 0 0 0
1382 3 -1.05 60.156300324404484 57.91497971170389 37.1693447630231 0 0 0
783 3 -1.05 37.20802645369857 60.11399391745656 37.2073703637402 0 0 0
682 2 1.575 42.20199916329974 59.27645503205321 38.041409765866156 0 0 0
683 3 -1.05 41.061815873978475 60.31403444477237 37.00671986741264 0 0 0
781 2 1.575 39.21892320158627 60.17023724407665 37.15045007498991 0 0 0
817 2 1.575 47.58426514906548 60.0646153507006 37.25610830209476 0 0 0
819 3 -1.05 45.59290613908041 60.05345301581165 37.26590302509208 0 0 0
739 2 1.575 50.74330343909244 59.27253260775443 38.04525068289596 0 0 0
836 3 -1.05 49.40041274603303 60.19091566502389 37.12953312576425 0 0 0
1381 3 -1.05 57.910073063270836 60.15787648946572 37.162379350967406 0 0 0
1396 3 -1.05 54.109698125925874 60.04175184600158 37.27770542945426 0 0 0
1400 2 1.575 56.055685406808095 60.04813761496527 37.27035072459426 0 0 0
1345 2 1.575 59.56702044748454 59.5633084225267 37.75557828362167 0 0 0
6 2 1.575 38.04595684809552 38.04480616687239 46.574999722150096 0 0 0
39 3 -1.05 37.16583878003777 37.169394037267715 39.40882652875283 0 0 0
40 3 -1.05 37.12990557688556 37.12944039466246 47.921892362294 0 0 0
45 2 1.575 37.26988222206479 37.27363427700503 41.26901878005994 0 0 0
48 3 -1.05 37.27829125315259 37.28366181432263 43.211710276107425 0 0 0
54 2 1.575 37.25623367658968 37.25445882908172 49.73600223691101 0 0 0
57 3 -1.05 37.26787221784824 37.26661511728942 51.72599607548387 0 0 0
451 2 1.575 38.042953200670325 38.043166670407906 55.11785196294346 0 0 0
487 3 -1.05 37.00778274494328 37.0071525060884 56.25783036621852 0 0 0
493 2 1.575 37.148468723165266 37.14857118806402 58.10209895053703 0 0 0
17 3 -1.05 39.29567876094792 37.186593029540184 45.39855153617481 0 0 0
18 3 -1.05 45.40044118706801 37.18244893374857 39.292482235579456 0 0 0
19 3 -1.05 45.337111673935 37.21854658043042 47.74877370642204 0 0 0
24 2 1.575 46.547274915575194 38.03787951845006 46.54929549824055 0 0 0
31 3 -1.05 47.753222550219924 37.23418066746127 45.33465698667651 0 0 0
44 2 1.575 39.24914913124765 37.247838477973005 43.43644586660208 0 0 0
47 3 -1.05 39.17633552431589 37.05689364945818 41.469548724473526 0 0 0
80 2 1.575 47.63499828584976 37.23640505966321 43.379559335716685 0 0 0
81 2 1.575 45.523129900609526 37.22047004877978 41.23431060623701 0 0 0
83 3 -1.05 47.46488420804153 37.29718583719802 41.432717979092395 0 0 0
84 3 -1.05 45.68779114057998 37.31978182326468 43.21300614454218 0 0 0
227 2 1.575 40.26141325568618 37.95648971799159 40.26542201513365 0 0 0
228 2 1.575 43.439577004574424 37.250636625572874 39.24521820300137 0 0 0
233 3 -1.05 41.46850784715815 37.06085932133067 39.177888439514945 0 0 0
235 2 1.575 41.23834129559881 37.22030193535779 45.52370698051688 0 0 0
237 2 1.575 43.37790644996755 37.23755316000956 47.63614115859696 0 0 0
239 3 -1.05 43.21510302309389 37.317556248066126 45.691544090828245 0 0 0
242 3 -1.05 41.43114993947245 37.292952221291216 47.46595496262788 0 0 0
297 2 1.575 42.444716089757314 38.02262753727025 42.44102115557002 0 0 0
313 3 -1.05 43.56847526302037 37.16413092368243 41.19797163415584 0 0 0
314 3 -1.05 41.201747576146445 37.16737033255509 43.56920110512983 0 0 0
53 2 1.575 39.22501859425128 37.22247338630935 51.9499872165348 0 0 0
56 3 -1.05 39.1584285172356 37.26442030905316 50.011028973732174 0 0 0
89 2 1.575 47.617068509844096 37.24333596679867 51.87388934205981 0 0 0
90 2 1.575 45.45697778537553 37.24146996991476 49.70576264136724 0 0 0
92 3 -1.05 47.43015311884575 37.30139978650218 49.90409954519993 0 0 0
93 3 -1.05 45.647960213840186 37.29507805600674 51.67024476754968 0 0 0
302 2 1.575 42.262940913861186 38.06408072723422 50.78242636356971 0 0 0
315 3 -1.05 43.488591946564696 37.25986794616151 49.588733324285506 0 0 0
316 3 -1.05 41.1641937972475 37.20260139896268 52.049472831723534 0 0 0
465 3 -1.05 39.289516977407786 37.25208139483566 53.8921870723882 0 0 0
467 3 -1.05 45.269253974346704 37.18863642289468 56.15577388886363 0 0 0
470 2 1.575 46.53173908296226 38.05317335816985 55.05210020815265 0 0 0
479 3 -1.05 47.73675997665458 37.24148002632696 53.839091155673124 0 0 0
484 3 -1.05 43.42940252726151 37.258259285236534 58.029312884463 0 0 0
495 3 -1.05 39.0479604944633 37.176280404562355 58.273099498039905 0 0 0
529 2 1.575 45.37271029104357 37.21417773423367 58.09443521093756 0 0 0
531 3 -1.05 47.310055410060585 37.26718170013342 58.16225222240501 0 0 0
641 3 -1.05 41.39064750547003 37.25939837907977 55.93127657364555 0 0 0
649 3 -1.05 43.17367700060358 37.27942609799829 54.145984987269564 0 0 0
651 2 1.575 43.33081656900293 37.20509203028133 56.09128184003384 0 0 0
656 2 1.575 41.22667001376018 37.212192250608545 53.98915485490736 0 0 0
264 2 1.575 51.949013600661125 37.217725622751175 39.22472658498099 0 0 0
269 3 -1.05 50.010488339711316 37.2662670680492 39.159327571934554 0 0 0
271 2 1.575 49.70952297511377 37.23830730832656 45.44698226111345 0 0 0
273 2 1.575 51.86147176141653 37.24591024256272 47.61737121585161 0 0 0
275 3 -1.05 51.677636380705415 37.29742494166944 45.65410479767613 0 0 0
278 3 -1.05 49.89055163392489 37.29904935316847 47.4162849472238 0 0 0
317 2 1.575 50.78517516538509 38.05299691707988 42.26165838466807 0 0 0
333 3 -1.05 52.05125033182502 37.188720632322756 41.164247771491006 0 0 0
334 3 -1.05 49.588392228516646 37.24749622355035 43.486644789357904 0 0 0
993 3 -1.05 53.89228156202454 37.26054188102572 39.29088104814646 0 0 0
994 3 -1.05 53.83148607925919 37.26160606232443 47.73664151550557 0 0 0
1000 2 1.575 55.05299792244233 38.06072273039967 46.53475527142615 0 0 0
1011 3 -1.05 56.15358973236198 37.20114320618596 45.270753782844174 0 0 0
1021 3 -1.05 58.03022864100948 37.25055817089919 43.42934634515554 0 0 0
1030 2 1.575 56.09349577757534 37.20873269505046 43.32924082560487 0 0 0
1031 2 1.575 53.98849648924302 37.20958673357793 41.22789319541375 0 0 0
1033 3 -1.05 55.92885655915722 37.26056975218095 41.38925380014673 0 0 0
1034 3 -1.05 54.14585942407119 37.28053988147342 43.17566934596366 0 0 0
1158 3 -1.05 58.16209164908602 37.26537563607557 47.31129901477912 0 0 0
1170 2 1.575 58.09417233225779 37.22102204246946 45.372366121024015 0 0 0
1180 3 -1.05 58.27148055035353 37.176914417492476 39.04777619881386 0 0 0
322 2 1.575 50.767593803580745 38.062782505188125 50.76590491813925 0 0 0
335 3 -1.05 51.98072778721034 37.235038436490804 49.576636832544175 0 0 0
336 3 -1.05 49.57729321136861 37.2547565237306 51.98955993154633 0 0 0
463 3 -1.05 51.92261467706813 37.1951540459974 58.02114820722872 0 0 0
560 3 -1.05 49.86517746786233 37.300271660953925 55.88607254989277 0 0 0
577 3 -1.05 51.63499150819777 37.31075769869642 54.09558367538176 0 0 0
591 2 1.575 51.80400783247162 37.2220398083964 56.08308388841437 0 0 0
593 2 1.575 49.684106970682826 37.23484063426806 53.94613021190159 0 0 0
1019 3 -1.05 58.018959359823945 37.192184599486595 51.92050363516103 0 0 0
1039 2 1.575 56.08226686589892 37.22742602427359 51.80045934168466 0 0 0
1040 2 1.575 53.93957727234554 37.23896602767782 49.686655403162185 0 0 0
1042 3 -1.05 55.882521707977 37.305775807577554 49.86332198242588 0 0 0
1043 3 -1.05 54.09784384541703 37.311728419229816 51.63595800680183 0 0 0
1209 3 -1.05 53.75340326430665 37.17064385796199 56.11417522510068 0 0 0
1213 2 1.575 54.88281781102616 38.034568650575 54.880793933146755 0 0 0
1227 3 -1.05 56.11342371253251 37.173557976583595 53.7513844462378 0 0 0
1231 3 -1.05 58.1382908383242 37.05943520928764 55.850128029772385 0 0 0
1238 2 1.575 58.07202579089533 37.25034509534084 53.882339553511414 0 0 0
1244 2 1.575 57.053478482071036 37.96359872404954 57.05643927908951 0 0 0
1247 2 1.575 53.886422099501324 37.24696188876247 58.07178396267282 0 0 0
1249 3 -1.05 55.85272977931587 37.05900939594422 58.139356748282765 0 0 0
1022 3 -1.05 60.314390190094294 37.006288500825384 41.06193819893558 0 0 0
1074 2 1.575 59.27745236363997 38.04186927031508 42.20166443800925 0 0 0
1161 3 -1.05 60.052600968664244 37.26494515094259 45.593126116668735 0 0 0
1168 2 1.575 60.06537217597142 37.255431096514414 47.58281696831011 0 0 0
1193 2 1.575 60.17060175689004 37.15025808337755 39.21859435794561 0 0 0
1020 3 -1.05 60.188346736945945 37.128628922442275 49.39973440602087 0 0 0
1069 2 1.575 59.27221744809629 38.049249331192065 50.74242159576108 0 0 0
1218 3 -1.05 60.153906631394904 37.162471333129524 57.91155209629233 0 0 0
1234 3 -1.05 60.0395345454532 37.274754026932406 54.11009673282036 0 0 0
1236 2 1.575 60.04548771845489 37.26870912556085 56.05623435117784 0 0 0
14 2 1.575 38.04388135764726 46.55061526407912 46.54699315105509 0 0 0
33 3 -1.05 37.18690904903831 39.29812536417939 45.40049299697832 0 0 0
34 3 -1.05 37.186369745010026 45.400147695302046 39.299982969152786 0 0 0
35 3 -1.05 37.22488340360761 45.339120396403054 47.73890469696555 0 0 0
37 3 -1.05 37.224922339391185 47.74008527645252 45.334675302121894 0 0 0
42 2 1.575 37.965547796424964 40.26279202870792 40.25678016964147 0 0 0
43 2 1.575 37.25424314132719 39.24627259741575 43.43563497605494 0 0 0
49 3 -1.05 37.06070891264504 39.18089701236212 41.46853089245116 0 0 0
61 2 1.575 37.2356079537044 47.631265796594874 43.38414701052607 0 0 0
63 2 1.575 37.21922314037692 45.521620840621296 41.23737299008328 0 0 0
66 3 -1.05 37.314687881721646 45.677393950672894 43.22101324394289 0 0 0
67 3 -1.05 37.30262749960442 47.4597350897199 41.44311134660598 0 0 0
115 2 1.575 37.25276815942931 43.435117940327316 39.2463458896562 0 0 0
118 3 -1.05 37.058900521959934 41.46612336626285 39.18192393991432 0 0 0
124 2 1.575 37.23325643380897 43.387000785854276 47.62832047178821 0 0 0
125 2 1.575 37.22092726339961 41.23334586852549 45.52150403975084 0 0 0
127 3 -1.05 37.298665787300216 41.44510646833764 47.46036065755775 0 0 0
128 3 -1.05 37.30968949012681 43.218117721994744 45.67382852490496 0 0 0
185 2 1.575 38.05129478321726 42.43333799509062 42.43374859165932 0 0 0
217 3 -1.05 37.18382069488299 41.20351100952198 43.565428577886756 0 0 0
218 3 -1.05 37.18310268724969 43.564483423198666 41.205803768657574 0 0 0
52 2 1.575 37.21810467980633 39.22682166243813 51.949668309593534 0 0 0
58 3 -1.05 37.2659603660593 39.15609674143048 50.008986509996355 0 0 0
70 2 1.575 37.242861270128415 47.61840340463171 51.86806967044037 0 0 0
72 2 1.575 37.244571562659296 45.457185390227636 49.7039587060385 0 0 0
75 3 -1.05 37.30661710677937 45.65694078230873 51.66891248363796 0 0 0
76 3 -1.05 37.29385036370451 47.43243386149557 49.89723212561607 0 0 0
190 2 1.575 38.045407755968775 42.26966744431994 50.78497201512758 0 0 0
219 3 -1.05 37.18492836721341 41.1644446186187 52.051271259538154 0 0 0
220 3 -1.05 37.25550478443897 43.49381513084461 49.57510735000026 0 0 0
460 2 1.575 38.02729347178696 46.52809245318414 55.04811784572615 0 0 0
481 3 -1.05 37.252779084177206 39.28860683890519 53.8924603990195 0 0 0
483 3 -1.05 37.17950432764715 45.26944062690306 56.15959694272473 0 0 0
485 3 -1.05 37.23487146229952 47.74504745618082 53.83605151979277 0 0 0
497 3 -1.05 37.1739637398973 39.04714050304296 58.273069747346184 0 0 0
511 2 1.575 37.21769826886623 45.367806746132295 58.09350678071283 0 0 0
515 3 -1.05 37.270919829934805 47.31114890711908 58.15979993218327 0 0 0
563 2 1.575 37.21316519432437 43.32844679262269 56.09515403597758 0 0 0
564 2 1.575 37.2137141249612 41.22833767757922 53.99093086062789 0 0 0
566 3 -1.05 37.2658129616009 41.38716539175447 55.93530182623449 0 0 0
567 3 -1.05 37.28964378803293 43.1725931723203 54.153954289370354 0 0 0
663 3 -1.05 37.252973379055724 43.42847630831962 58.03428768080521 0 0 0
133 2 1.575 37.21434728431465 51.95003650629166 39.22407339010027 0 0 0
136 3 -1.05 37.268380007284996 50.00824156282442 39.157923466247354 0 0 0
142 2 1.575 37.24670479163568 51.86047122086295 47.61909690742888 0 0 0
143 2 1.575 37.243418294584565 49.705308864652515 45.4527052778872 0 0 0
145 3 -1.05 37.2914067777654 49.88476020193954 47.42653907138967 0 0 0
146 3 -1.05 37.310167016812244 51.665558005007625 45.661212129295464 0 0 0
195 2 1.575 38.048354095599855 50.790105416462346 42.2654717479361 0 0 0
221 3 -1.05 37.25697085114313 49.577366530181195 43.488658908840144 0 0 0
222 3 -1.05 37.181730347597046 52.05202089723958 41.16110526676912 0 0 0
674 2 1.575 38.048451437245646 55.04414936080174 46.528066259079814 0 0 0
697 3 -1.05 37.24557698267131 53.89334941883633 39.285335955846286 0 0 0
698 3 -1.05 37.24751129360776 53.831352791084434 47.74507484539645 0 0 0
699 3 -1.05 37.18430387269212 56.15798328009111 45.27240794049017 0 0 0
707 2 1.575 37.21193610894919 56.09315718434814 43.33153000295468 0 0 0
709 2 1.575 37.206409742502984 53.99456095981591 41.22560266627536 0 0 0
712 3 -1.05 37.289667937844726 54.152309612553374 43.168128439137824 0 0 0
713 3 -1.05 37.256560990993016 55.93850317635399 41.38652153948257 0 0 0
782 3 -1.05 37.17500251234282 58.27178398570588 39.04696782651964 0 0 0
789 2 1.575 37.21688151457379 58.09329402715885 45.37078837808329 0 0 0
791 3 -1.05 37.268406115270686 58.163593502722975 47.313048569179166 0 0 0
880 3 -1.05 37.25064459049051 58.032924572259496 43.43129299999118 0 0 0
200 2 1.575 38.058066866584625 50.763594073264805 50.76321045786961 0 0 0
223 3 -1.05 37.24196435870004 49.58383193171881 51.98880033772887 0 0 0
224 3 -1.05 37.23287418254612 51.98591241783487 49.58677063220823 0 0 0
581 2 1.575 37.22404579744365 51.80364667841821 56.08222623598516 0 0 0
582 2 1.575 37.23008969124599 49.68685936460371 53.941157300034895 0 0 0
584 3 -1.05 37.29882789571572 49.86563671330589 55.88449846215927 0 0 0
585 3 -1.05 37.316407612856025 51.63637189790813 54.099775149560784 0 0 0
658 3 -1.05 37.19354538671259 51.921573170353206 58.020914708119825 0 0 0
716 2 1.575 37.221256604503644 56.08613647129766 51.80148032664514 0 0 0
718 2 1.575 37.22913438175255 53.94311887522061 49.689202012266534 0 0 0
721 3 -1.05 37.30350742431868 54.10069619000511 51.643913567108584 0 0 0
722 3 -1.05 37.305030256832026 55.88408488503383 49.866952989373424 0 0 0
878 3 -1.05 37.19878591400425 58.023139622529385 51.9222986687167 0 0 0
887 2 1.575 38.02726633615082 54.88072003800103 54.87926372308099 0 0 0
913 3 -1.05 37.1739776119442 53.753660131910955 56.11683429965341 0 0 0
915 3 -1.05 37.169707820506304 56.11857811631325 53.75370806728751 0 0 0
925 2 1.575 37.24794223217075 53.88298052006511 58.07409634807074 0 0 0
929 3 -1.05 37.06059465022152 55.849290173402856 58.13885516225938 0 0 0
975 3 -1.05 37.05847811519729 58.14123487008608 55.84934434569167 0 0 0
977 2 1.575 37.246924306079364 58.07316472225073 53.88354923692776 0 0 0
980 2 1.575 37.959413507909574 57.055388103308516 57.05431169646588 0 0 0
2 3 -1.05 39.208544426067306 45.43176030524054 45.42319777485264 0 0 0
3 3 -1.05 45.44062712268745 39.2014601132706 45.43341932672067 0 0 0
4 3 -1.05 45.43029580071785 45.427624506945776 39.267139055575484 0 0 0
5 3 -1.05 39.263173721393244 39.254997536868395 39.255257352555745 0 0 0
7 3 -1.05 45.39587482896449 45.40403081870141 47.58426870336427 0 0 0
8 3 -1.05 39.24620056884203 39.25391556037488 47.67289776125162 0 0 0
12 3 -1.05 45.39373469479352 47.6988175085597 45.48199508978962 0 0 0
13 3 -1.05 39.254443042321874 47.67307673677274 39.25303445203452 0 0 0
15 3 -1.05 39.17027979045925 47.66830248826353 47.67294727400648 0 0 0
22 3 -1.05 47.69721842038384 45.382361461998805 45.466638594216775 0 0 0
23 3 -1.05 47.67940905253784 39.25278005767702 39.24876015809845 0 0 0
25 3 -1.05 47.67283680042975 39.16852642180205 47.67524751474591 0 0 0
28 3 -1.05 47.679981494289315 47.68664349229977 39.16667649554201 0 0 0
29 2 1.575 46.54645149371162 46.52787595680274 46.51620311361813 0 0 0
30 3 -1.05 47.70317451867346 47.59643976146276 47.60070900979293 0 0 0
41 2 1.575 40.28752767032427 40.278055307263486 44.4310276625911 0 0 0
46 3 -1.05 39.15966067614022 39.154139027873086 43.4570733364739 0 0 0
60 2 1.575 39.19594480051506 47.651497309090885 41.24054296768678 0 0 0
62 2 1.575 39.214142447289156 45.4917287693796 43.42024747238145 0 0 0
64 3 -1.05 39.255932199527116 47.52234489391998 43.31855952449698 0 0 0
65 3 -1.05 39.23216168302153 45.58425612729296 41.3541041451984 0 0 0
78 2 1.575 47.649853952382706 39.19317602108739 41.240630290946065 0 0 0
79 2 1.575 45.47939801491237 39.227218003652744 43.41930148449102 0 0 0
82 3 -1.05 47.540648282388744 39.24685386373523 43.30714872350121 0 0 0
85 3 -1.05 45.578207880055835 39.23451313886872 41.34339178626998 0 0 0
96 1 1.05 47.593428970653186 47.59598932261528 41.296590771349145 0 0 0
97 1 1.05 45.53730974298337 47.58470974588253 43.343172524585604 0 0 0
98 1 1.05 47.58660124250764 45.5304659274139 43.3420185522887 0 0 0
99 2 1.575 45.50027871849373 45.499827087128594 41.31444078283014 0 0 0
100 3 -1.05 47.57498585685558 47.57754590037034 43.356604459037946 0 0 0
101 3 -1.05 47.47082904738797 45.49148335508791 41.28798579004658 0 0 0
102 3 -1.05 45.474702152494245 45.47528993437664 43.278715838042146 0 0 0
103 3 -1.05 45.499213497662936 47.47208454560939 41.28689339640855 0 0 0
113 2 1.575 40.276908597296156 44.431264748678515 40.27919325148411 0 0 0
120 3 -1.05 39.15731419160223 43.455535523390694 39.15389729706734 0 0 0
123 2 1.575 39.1919231335199 41.24316845913102 47.6553528601324 0 0 0
126 2 1.575 39.20366067722683 43.42852396666918 45.48514828553714 0 0 0
129 3 -1.05 39.251786049302794 43.32325101986255 47.517838668493624 0 0 0
130 3 -1.05 39.23446891978474 41.35514376120426 45.58129561686492 0 0 0
150 2 1.575 47.66051841048022 41.23990201433527 39.18749463509498 0 0 0
151 2 1.575 45.472575351764064 43.40663646997669 39.210626416611696 0 0 0
154 3 -1.05 45.561867603485815 41.363727574342015 39.24697422033557 0 0 0
156 3 -1.05 47.530228767466085 43.29299948546878 39.237366169011985 0 0 0
159 1 1.05 47.57722861247358 41.261167609165966 47.59776836667984 0 0 0
160 2 1.575 45.47942705199861 43.36600785490969 47.61065308682069 0 0 0
161 1 1.05 45.49046784602217 41.280519660880415 45.49289246542765 0 0 0
162 2 1.575 47.589456518461745 43.366625790703104 45.479671721074574 0 0 0
163 3 -1.05 45.50153662351887 41.40366324516578 47.57079250638198 0 0 0
164 3 -1.05 45.589642819070825 43.405299945938324 45.56266671503046 0 0 0
165 3 -1.05 47.51564063772585 43.40867261392552 47.510136507488845 0 0 0
166 3 -1.05 47.5778567866785 41.4062800358959 45.52367445357323 0 0 0
186 3 -1.05 45.47360562130894 41.2014853105958 43.36808887197507 0 0 0
187 3 -1.05 39.270977644937524 43.488471728564235 43.47846301030621 0 0 0
188 3 -1.05 39.14803459748005 41.311960742979664 41.30816264701984 0 0 0
189 3 -1.05 45.48498088446219 43.45628592116788 41.20434512576837 0 0 0
205 2 1.575 46.57553187899415 42.30708629873228 42.28631933930774 0 0 0
206 3 -1.05 47.69593404110394 43.35157007032767 43.46320173012257 0 0 0
207 3 -1.05 47.64318278759477 41.18345191860627 41.176348644352814 0 0 0
225 2 1.575 44.4083700042278 40.286887347407465 40.29827384723161 0 0 0
231 3 -1.05 43.4551452796789 39.156174320596705 39.155194017484696 0 0 0
236 2 1.575 41.242051741906494 39.19320652336952 47.646284412706414 0 0 0
238 2 1.575 43.434143091797054 39.216709960963264 45.473791820141436 0 0 0
240 3 -1.05 43.30491249289705 39.24797098987627 47.543564428461025 0 0 0
241 3 -1.05 41.34851700056548 39.23153931755074 45.585794991122384 0 0 0
245 2 1.575 41.24409764485496 47.6573515783709 39.18978013811202 0 0 0
246 2 1.575 43.41132231907635 45.471278157383104 39.20707890770847 0 0 0
249 3 -1.05 43.29235018075017 47.533299442644875 39.236932638770675 0 0 0
251 3 -1.05 41.365460886344884 45.56853821818309 39.23820171511817 0 0 0
253 1 1.05 41.28031098380303 45.51662610125806 45.508680346497975 0 0 0
254 1 1.05 41.25718925671805 47.58392717832731 47.59271191933663 0 0 0
255 2 1.575 43.36606653255025 45.48325496510494 47.61739440003384 0 0 0
256 2 1.575 43.37047832498714 47.59494409871162 45.48236782838852 0 0 0
257 3 -1.05 43.398710527268236 45.59236958242122 45.56625095605976 0 0 0
258 3 -1.05 43.396261908553925 47.520108248373575 47.51171462591133 0 0 0
259 3 -1.05 41.40410589792932 47.5738309191661 45.50830836694071 0 0 0
260 3 -1.05 41.40066179501859 45.501238474661605 47.55678011360598 0 0 0
298 3 -1.05 41.313288150365146 39.12048525472888 41.32643856039801 0 0 0
299 3 -1.05 43.46427554569385 45.48699765402326 41.19861123491154 0 0 0
300 3 -1.05 43.49840199786218 39.20799628616303 43.4954546250245 0 0 0
301 3 -1.05 41.204831930279866 45.39995900248611 43.3682675982829 0 0 0
307 2 1.575 42.30960547853071 46.55131727269278 42.29007481659208 0 0 0
308 3 -1.05 41.187594826291466 47.623081312500915 41.18222721945132 0 0 0
309 3 -1.05 43.352314707115625 47.67640107698982 43.46101540484492 0 0 0
338 3 -1.05 43.49655978044091 43.501156406073434 39.218125761308094 0 0 0
339 3 -1.05 41.31240644577906 41.3288797314634 39.13114184116148 0 0 0
340 3 -1.05 41.18636981409056 43.37380522430711 45.384073108215716 0 0 0
341 3 -1.05 43.383371082890925 41.18011504863548 45.46309784055041 0 0 0
342 2 1.575 42.28757790181779 42.29510451092233 46.53370185788284 0 0 0
343 3 -1.05 43.45054394540825 43.45723481287511 47.530404698336355 0 0 0
344 3 -1.05 41.183346612695736 41.18884178150045 47.629543676514146 0 0 0
377 2 1.575 44.42052100896912 44.42191546474517 44.446674416136915 0 0 0
378 1 1.05 43.32170447984593 43.31248151970576 41.295310877489065 0 0 0
379 1 1.05 43.33560737650578 41.28327226130321 43.3345855008847 0 0 0