LAMMPS data file via write_data, version 10 Feb 2021, timestep = 0

1203 atoms
5 atom types
200 bonds
1 bond types
100 angles
1 angle types

-75 75 xlo xhi
-75 75 ylo yhi
-75 75 zlo zhi

Masses

1 15.9994
2 1.008
3 15.9994
4 55.845001
5 55.845001

Pair Coeffs # lj/cut/coul/long

1 0.1554 3.5532
2 0 0
3 0.1554 3.16554
4 9.0298e-06 4.07222
5 9.0298e-06 4.07222

Bond Coeffs # harmonic

1 450 0.9572

Angle Coeffs # harmonic

1 55 105.52

Atoms # full

1 0 3 -1.05 38.2295 46.7629 53.237 0 0 0
2 0 3 -1.05 38.2296 48.9704 51.0295 0 0 0
3 0 3 -1.05 38.2296 51.0295 48.9704 0 0 0
4 0 3 -1.05 38.2296 53.237 46.763 0 0 0
5 0 5 1.575 38.2667 44.6667 53.2 0 0 0
6 0 4 1.05 38.2667 46.8 46.8 0 0 0
7 0 5 1.575 38.2667 46.8 55.3333 0 0 0
8 0 5 1.575 38.2667 48.9334 48.9334 0 0 0
9 0 5 1.575 38.2667 51.0666 51.0666 0 0 0
10 0 4 1.05 38.2667 53.2 44.6667 0 0 0
11 0 4 1.05 38.2667 53.2 53.2 0 0 0
12 0 4 1.05 38.2667 55.3333 46.8 0 0 0
13 0 3 -1.05 38.3038 44.629599999999996 51.1037 0 0 0
14 0 3 -1.05 38.3038 46.8371 48.8963 0 0 0
15 0 3 -1.05 38.3038 48.8963 46.8371 0 0 0
16 0 3 -1.05 38.3038 48.8963 55.3703 0 0 0
17 0 3 -1.05 38.3038 51.1037 44.629599999999996 0 0 0
18 0 3 -1.05 38.3038 51.1037 53.1628 0 0 0
19 0 3 -1.05 38.3038 53.1628 51.1037 0 0 0
20 0 3 -1.05 38.3038 55.3703 48.8963 0 0 0
21 0 4 1.05 39.3334 43.6 47.8667 0 0 0
22 0 5 1.575 39.3334 47.8667 43.6 0 0 0
23 0 5 1.575 39.3334 47.8667 52.1333 0 0 0
24 0 4 1.05 39.3334 52.1333 47.8667 0 0 0
25 0 4 1.05 39.3334 52.1333 56.4 0 0 0
26 0 5 1.575 39.3334 56.4 52.1333 0 0 0
27 0 3 -1.05 40.362899999999996 42.5704 51.1037 0 0 0
28 0 3 -1.05 40.362899999999996 44.629599999999996 44.629599999999996 0 0 0
29 0 3 -1.05 40.362899999999996 44.629599999999996 53.1628 0 0 0
30 0 3 -1.05 40.362899999999996 46.8371 46.8371 0 0 0
31 0 3 -1.05 40.362899999999996 46.8371 55.3703 0 0 0
32 0 3 -1.05 40.362899999999996 48.8963 48.8963 0 0 0
33 0 3 -1.05 40.362899999999996 48.8963 57.4295 0 0 0
34 0 3 -1.05 40.362899999999996 51.1037 42.5704 0 0 0
35 0 3 -1.05 40.362899999999996 51.1037 51.1037 0 0 0
36 0 3 -1.05 40.362899999999996 53.1628 44.629599999999996 0 0 0
37 0 3 -1.05 40.362899999999996 53.1628 53.1628 0 0 0
38 0 3 -1.05 40.362899999999996 55.3703 46.8371 0 0 0
39 0 3 -1.05 40.362899999999996 55.3703 55.3703 0 0 0
40 0 3 -1.05 40.362899999999996 57.4295 48.8963 0 0 0
41 0 5 1.575 40.4 42.5334 44.6667 0 0 0
42 0 4 1.05 40.4 42.5334 53.2 0 0 0
43 0 5 1.575 40.4 44.6667 42.5334 0 0 0
44 0 5 1.575 40.4 44.6667 51.0666 0 0 0
45 0 5 1.575 40.4 46.8 48.9334 0 0 0
46 0 5 1.575 40.4 46.8 57.4666 0 0 0
47 0 5 1.575 40.4 48.9334 46.8 0 0 0
48 0 5 1.575 40.4 48.9334 55.3333 0 0 0
49 0 5 1.575 40.4 51.0666 44.6667 0 0 0
50 0 5 1.575 40.4 51.0666 53.2 0 0 0
51 0 4 1.05 40.4 53.2 42.5334 0 0 0
52 0 4 1.05 40.4 53.2 51.0666 0 0 0
53 0 4 1.05 40.4 55.3333 48.9334 0 0 0
54 0 4 1.05 40.4 55.3333 57.4666 0 0 0
55 0 5 1.575 40.4 57.4666 46.8 0 0 0
56 0 5 1.575 40.4 57.4666 55.3333 0 0 0
57 0 3 -1.05 40.437200000000004 42.4962 46.763 0 0 0
58 0 3 -1.05 40.437200000000004 42.4962 55.2961 0 0 0
59 0 3 -1.05 40.437200000000004 44.7037 48.9704 0 0 0
60 0 3 -1.05 40.437200000000004 44.7037 57.5037 0 0 0
61 0 3 -1.05 40.437200000000004 46.763 42.4962 0 0 0
62 0 3 -1.05 40.437200000000004 46.763 51.0295 0 0 0
63 0 3 -1.05 40.437200000000004 48.9704 44.7037 0 0 0
64 0 3 -1.05 40.437200000000004 48.9704 53.237 0 0 0
65 0 3 -1.05 40.437200000000004 51.0295 46.763 0 0 0
66 0 3 -1.05 40.437200000000004 51.0295 55.2961 0 0 0
67 0 3 -1.05 40.437200000000004 53.237 48.9704 0 0 0
68 0 3 -1.05 40.437200000000004 53.237 57.5037 0 0 0
69 0 3 -1.05 40.437200000000004 55.2961 42.4962 0 0 0
70 0 3 -1.05 40.437200000000004 55.2961 51.0295 0 0 0
71 0 3 -1.05 40.437200000000004 57.5037 44.7037 0 0 0
72 0 3 -1.05 40.437200000000004 57.5037 53.237 0 0 0
73 0 4 1.05 41.4667 41.4667 50 0 0 0
74 0 4 1.05 41.4667 45.7334 45.7334 0 0 0
75 0 4 1.05 41.4667 45.7334 54.2666 0 0 0
76 0 4 1.05 41.4667 50 41.4667 0 0 0
77 0 5 1.575 41.4667 50 50 0 0 0
78 0 4 1.05 41.4667 50 58.5333 0 0 0
79 0 5 1.575 41.4667 54.2666 45.7334 0 0 0
80 0 4 1.05 41.4667 54.2666 54.2666 0 0 0
81 0 5 1.575 41.4667 58.5333 50 0 0 0
82 0 3 -1.05 42.4962 40.437200000000004 46.763 0 0 0
83 0 3 -1.05 42.4962 40.437200000000004 55.2961 0 0 0
84 0 3 -1.05 42.4962 42.4962 44.7037 0 0 0
85 0 3 -1.05 42.4962 42.4962 53.237 0 0 0
86 0 3 -1.05 42.4962 44.7037 42.4962 0 0 0
87 0 3 -1.05 42.4962 44.7037 51.0295 0 0 0
88 0 3 -1.05 42.4962 44.7037 59.562799999999996 0 0 0
89 0 3 -1.05 42.4962 46.763 40.437200000000004 0 0 0
90 0 3 -1.05 42.4962 46.763 48.9704 0 0 0
91 0 3 -1.05 42.4962 46.763 57.5037 0 0 0
92 0 3 -1.05 42.4962 48.9704 46.763 0 0 0
93 0 3 -1.05 42.4962 48.9704 55.2961 0 0 0
94 0 3 -1.05 42.4962 51.0295 44.7037 0 0 0
95 0 3 -1.05 42.4962 51.0295 53.237 0 0 0
96 0 3 -1.05 42.4962 53.237 42.4962 0 0 0
97 0 3 -1.05 42.4962 53.237 51.0295 0 0 0
98 0 3 -1.05 42.4962 53.237 59.562799999999996 0 0 0
99 0 3 -1.05 42.4962 55.2961 40.437200000000004 0 0 0
100 0 3 -1.05 42.4962 55.2961 48.9704 0 0 0
101 0 3 -1.05 42.4962 55.2961 57.5037 0 0 0
102 0 3 -1.05 42.4962 57.5037 46.763 0 0 0
103 0 3 -1.05 42.4962 57.5037 55.2961 0 0 0
104 0 3 -1.05 42.4962 59.562799999999996 44.7037 0 0 0
105 0 3 -1.05 42.4962 59.562799999999996 53.237 0 0 0
106 0 4 1.05 42.5334 40.4 44.6667 0 0 0
107 0 5 1.575 42.5334 40.4 53.2 0 0 0
108 0 4 1.05 42.5334 42.5334 46.8 0 0 0
109 0 5 1.575 42.5334 42.5334 55.3333 0 0 0
110 0 5 1.575 42.5334 44.6667 40.4 0 0 0
111 0 5 1.575 42.5334 44.6667 48.9334 0 0 0
112 0 5 1.575 42.5334 44.6667 57.4666 0 0 0
113 0 4 1.05 42.5334 46.8 42.5334 0 0 0
114 0 4 1.05 42.5334 46.8 51.0666 0 0 0
115 0 5 1.575 42.5334 46.8 59.6 0 0 0
116 0 5 1.575 42.5334 48.9334 44.6667 0 0 0
117 0 4 1.05 42.5334 48.9334 53.2 0 0 0
118 0 4 1.05 42.5334 51.0666 46.8 0 0 0
119 0 5 1.575 42.5334 51.0666 55.3333 0 0 0
120 0 5 1.575 42.5334 53.2 40.4 0 0 0
121 0 4 1.05 42.5334 53.2 48.9334 0 0 0
122 0 5 1.575 42.5334 53.2 57.4666 0 0 0
123 0 4 1.05 42.5334 55.3333 42.5334 0 0 0
124 0 4 1.05 42.5334 55.3333 51.0666 0 0 0
125 0 4 1.05 42.5334 55.3333 59.6 0 0 0
126 0 4 1.05 42.5334 57.4666 44.6667 0 0 0
127 0 5 1.575 42.5334 57.4666 53.2 0 0 0
128 0 5 1.575 42.5334 59.6 46.8 0 0 0
129 0 5 1.575 42.5334 59.6 55.3333 0 0 0
130 0 3 -1.05 42.5704 40.362899999999996 51.1037 0 0 0
131 0 3 -1.05 42.5704 42.5704 48.8963 0 0 0
132 0 3 -1.05 42.5704 42.5704 57.4295 0 0 0
133 0 3 -1.05 42.5704 44.629599999999996 46.8371 0 0 0
134 0 3 -1.05 42.5704 44.629599999999996 55.3703 0 0 0
135 0 3 -1.05 42.5704 46.8371 44.629599999999996 0 0 0
136 0 3 -1.05 42.5704 46.8371 53.1628 0 0 0
137 0 3 -1.05 42.5704 48.8963 42.5704 0 0 0
138 0 3 -1.05 42.5704 48.8963 51.1037 0 0 0
139 0 3 -1.05 42.5704 48.8963 59.637 0 0 0
140 0 3 -1.05 42.5704 51.1037 40.362899999999996 0 0 0
141 0 3 -1.05 42.5704 51.1037 48.8963 0 0 0
142 0 3 -1.05 42.5704 51.1037 57.4295 0 0 0
143 0 3 -1.05 42.5704 53.1628 46.8371 0 0 0
144 0 3 -1.05 42.5704 53.1628 55.3703 0 0 0
145 0 3 -1.05 42.5704 55.3703 44.629599999999996 0 0 0
146 0 3 -1.05 42.5704 55.3703 53.1628 0 0 0
147 0 3 -1.05 42.5704 57.4295 42.5704 0 0 0
148 0 3 -1.05 42.5704 57.4295 51.1037 0 0 0
149 0 3 -1.05 42.5704 59.637 48.8963 0 0 0
150 0 5 1.575 43.6 39.3334 47.8667 0 0 0
151 0 5 1.575 43.6 43.6 43.6 0 0 0
152 0 4 1.05 43.6 43.6 52.1333 0 0 0
153 0 5 1.575 43.6 47.8667 39.3334 0 0 0
154 0 4 1.05 43.6 47.8667 47.8667 0 0 0
155 0 4 1.05 43.6 47.8667 56.4 0 0 0
156 0 4 1.05 43.6 52.1333 43.6 0 0 0
157 0 4 1.05 43.6 52.1333 52.1333 0 0 0
158 0 5 1.575 43.6 52.1333 60.6666 0 0 0
159 0 5 1.575 43.6 56.4 47.8667 0 0 0
160 0 4 1.05 43.6 56.4 56.4 0 0 0
161 0 4 1.05 43.6 60.6666 52.1333 0 0 0
162 0 3 -1.05 44.629599999999996 38.3038 51.1037 0 0 0
163 0 3 -1.05 44.629599999999996 40.362899999999996 44.629599999999996 0 0 0
164 0 3 -1.05 44.629599999999996 40.362899999999996 53.1628 0 0 0
165 0 3 -1.05 44.629599999999996 42.5704 46.8371 0 0 0
166 0 3 -1.05 44.629599999999996 42.5704 55.3703 0 0 0
167 0 3 -1.05 44.629599999999996 44.629599999999996 40.362899999999996 0 0 0
168 0 3 -1.05 44.629599999999996 44.629599999999996 48.8963 0 0 0
169 0 3 -1.05 44.629599999999996 44.629599999999996 57.4295 0 0 0
170 0 3 -1.05 44.629599999999996 46.8371 42.5704 0 0 0
171 0 3 -1.05 44.629599999999996 46.8371 51.1037 0 0 0
172 0 3 -1.05 44.629599999999996 46.8371 59.637 0 0 0
173 0 3 -1.05 44.629599999999996 48.8963 44.629599999999996 0 0 0
174 0 3 -1.05 44.629599999999996 48.8963 53.1628 0 0 0
175 0 3 -1.05 44.629599999999996 48.8963 61.6962 0 0 0
176 0 3 -1.05 44.629599999999996 51.1037 38.3038 0 0 0
177 0 3 -1.05 44.629599999999996 51.1037 46.8371 0 0 0
178 0 3 -1.05 44.629599999999996 51.1037 55.3703 0 0 0
179 0 3 -1.05 44.629599999999996 53.1628 40.362899999999996 0 0 0
180 0 3 -1.05 44.629599999999996 53.1628 48.8963 0 0 0
181 0 3 -1.05 44.629599999999996 53.1628 57.4295 0 0 0
182 0 3 -1.05 44.629599999999996 55.3703 42.5704 0 0 0
183 0 3 -1.05 44.629599999999996 55.3703 51.1037 0 0 0
184 0 3 -1.05 44.629599999999996 55.3703 59.637 0 0 0
185 0 3 -1.05 44.629599999999996 57.4295 44.629599999999996 0 0 0
186 0 3 -1.05 44.629599999999996 57.4295 53.1628 0 0 0
187 0 3 -1.05 44.629599999999996 59.637 46.8371 0 0 0
188 0 3 -1.05 44.629599999999996 59.637 55.3703 0 0 0
189 0 3 -1.05 44.629599999999996 61.6962 48.8963 0 0 0
190 0 5 1.575 44.6667 38.2667 53.2 0 0 0
191 0 4 1.05 44.6667 40.4 42.5334 0 0 0
192 0 5 1.575 44.6667 40.4 51.0666 0 0 0
193 0 4 1.05 44.6667 42.5334 40.4 0 0 0
194 0 4 1.05 44.6667 42.5334 48.9334 0 0 0
195 0 5 1.575 44.6667 42.5334 57.4666 0 0 0
196 0 5 1.575 44.6667 44.6667 46.8 0 0 0
197 0 5 1.575 44.6667 44.6667 55.3333 0 0 0
198 0 4 1.05 44.6667 46.8 44.6667 0 0 0
199 0 5 1.575 44.6667 46.8 53.2 0 0 0
200 0 5 1.575 44.6667 46.8 61.7333 0 0 0
201 0 5 1.575 44.6667 48.9334 42.5334 0 0 0
202 0 4 1.05 44.6667 48.9334 51.0666 0 0 0
203 0 4 1.05 44.6667 48.9334 59.6 0 0 0
204 0 4 1.05 44.6667 51.0666 40.4 0 0 0
205 0 5 1.575 44.6667 51.0666 48.9334 0 0 0
206 0 5 1.575 44.6667 51.0666 57.4666 0 0 0
207 0 5 1.575 44.6667 53.2 38.2667 0 0 0
208 0 4 1.05 44.6667 53.2 46.8 0 0 0
209 0 5 1.575 44.6667 53.2 55.3333 0 0 0
210 0 5 1.575 44.6667 55.3333 44.6667 0 0 0
211 0 4 1.05 44.6667 55.3333 53.2 0 0 0
212 0 5 1.575 44.6667 57.4666 42.5334 0 0 0
213 0 5 1.575 44.6667 57.4666 51.0666 0 0 0
214 0 5 1.575 44.6667 57.4666 59.6 0 0 0
215 0 5 1.575 44.6667 59.6 48.9334 0 0 0
216 0 4 1.05 44.6667 59.6 57.4666 0 0 0
217 0 5 1.575 44.6667 61.7333 46.8 0 0 0
218 0 3 -1.05 44.7037 40.437200000000004 48.9704 0 0 0
219 0 3 -1.05 44.7037 40.437200000000004 57.5037 0 0 0
220 0 3 -1.05 44.7037 42.4962 42.4962 0 0 0
221 0 3 -1.05 44.7037 42.4962 51.0295 0 0 0
222 0 3 -1.05 44.7037 42.4962 59.562799999999996 0 0 0
223 0 3 -1.05 44.7037 44.7037 44.7037 0 0 0
224 0 3 -1.05 44.7037 44.7037 53.237 0 0 0
225 0 3 -1.05 44.7037 46.763 46.763 0 0 0
226 0 3 -1.05 44.7037 46.763 55.2961 0 0 0
227 0 3 -1.05 44.7037 48.9704 40.437200000000004 0 0 0
228 0 3 -1.05 44.7037 48.9704 48.9704 0 0 0
229 0 3 -1.05 44.7037 48.9704 57.5037 0 0 0
230 0 3 -1.05 44.7037 51.0295 42.4962 0 0 0
231 0 3 -1.05 44.7037 51.0295 51.0295 0 0 0
232 0 3 -1.05 44.7037 51.0295 59.562799999999996 0 0 0
233 0 3 -1.05 44.7037 53.237 44.7037 0 0 0
234 0 3 -1.05 44.7037 53.237 53.237 0 0 0
235 0 3 -1.05 44.7037 55.2961 46.763 0 0 0
236 0 3 -1.05 44.7037 55.2961 55.2961 0 0 0
237 0 3 -1.05 44.7037 57.5037 40.437200000000004 0 0 0
238 0 3 -1.05 44.7037 57.5037 48.9704 0 0 0
239 0 3 -1.05 44.7037 57.5037 57.5037 0 0 0
240 0 3 -1.05 44.7037 59.562799999999996 42.4962 0 0 0
241 0 3 -1.05 44.7037 59.562799999999996 51.0295 0 0 0
242 0 5 1.575 45.7334 41.4667 45.7334 0 0 0
243 0 4 1.05 45.7334 41.4667 54.2666 0 0 0
244 0 5 1.575 45.7334 45.7334 41.4667 0 0 0
245 0 5 1.575 45.7334 45.7334 50 0 0 0
246 0 5 1.575 45.7334 45.7334 58.5333 0 0 0
247 0 5 1.575 45.7334 50 45.7334 0 0 0
248 0 4 1.05 45.7334 50 54.2666 0 0 0
249 0 5 1.575 45.7334 54.2666 41.4667 0 0 0
250 0 4 1.05 45.7334 54.2666 50 0 0 0
251 0 5 1.575 45.7334 54.2666 58.5333 0 0 0
252 0 4 1.05 45.7334 58.5333 45.7334 0 0 0
253 0 5 1.575 45.7334 58.5333 54.2666 0 0 0
254 0 3 -1.05 46.763 38.2296 53.237 0 0 0
255 0 3 -1.05 46.763 40.437200000000004 42.4962 0 0 0
256 0 3 -1.05 46.763 40.437200000000004 51.0295 0 0 0
257 0 3 -1.05 46.763 42.4962 40.437200000000004 0 0 0
258 0 3 -1.05 46.763 42.4962 48.9704 0 0 0
259 0 3 -1.05 46.763 42.4962 57.5037 0 0 0
260 0 3 -1.05 46.763 44.7037 46.763 0 0 0
261 0 3 -1.05 46.763 44.7037 55.2961 0 0 0
262 0 3 -1.05 46.763 46.763 44.7037 0 0 0
263 0 3 -1.05 46.763 46.763 53.237 0 0 0
264 0 3 -1.05 46.763 46.763 61.7703 0 0 0
265 0 3 -1.05 46.763 48.9704 42.4962 0 0 0
266 0 3 -1.05 46.763 48.9704 51.0295 0 0 0
267 0 3 -1.05 46.763 48.9704 59.562799999999996 0 0 0
268 0 3 -1.05 46.763 51.0295 40.437200000000004 0 0 0
269 0 3 -1.05 46.763 51.0295 48.9704 0 0 0
270 0 3 -1.05 46.763 51.0295 57.5037 0 0 0
271 0 3 -1.05 46.763 53.237 38.2296 0 0 0
272 0 3 -1.05 46.763 53.237 46.763 0 0 0
273 0 3 -1.05 46.763 53.237 55.2961 0 0 0
274 0 3 -1.05 46.763 55.2961 44.7037 0 0 0
275 0 3 -1.05 46.763 55.2961 53.237 0 0 0
276 0 3 -1.05 46.763 57.5037 42.4962 0 0 0
277 0 3 -1.05 46.763 57.5037 51.0295 0 0 0
278 0 3 -1.05 46.763 57.5037 59.562799999999996 0 0 0
279 0 3 -1.05 46.763 59.562799999999996 48.9704 0 0 0
280 0 3 -1.05 46.763 59.562799999999996 57.5037 0 0 0
281 0 3 -1.05 46.763 61.7703 46.763 0 0 0
282 0 4 1.05 46.8 38.2667 46.8 0 0 0
283 0 5 1.575 46.8 38.2667 55.3333 0 0 0
284 0 5 1.575 46.8 40.4 48.9334 0 0 0
285 0 4 1.05 46.8 40.4 57.4666 0 0 0
286 0 5 1.575 46.8 42.5334 42.5334 0 0 0
287 0 5 1.575 46.8 42.5334 51.0666 0 0 0
288 0 5 1.575 46.8 42.5334 59.6 0 0 0
289 0 5 1.575 46.8 44.6667 44.6667 0 0 0
290 0 4 1.05 46.8 44.6667 53.2 0 0 0
291 0 5 1.575 46.8 44.6667 61.7333 0 0 0
292 0 4 1.05 46.8 46.8 38.2667 0 0 0
293 0 5 1.575 46.8 46.8 46.8 0 0 0
294 0 5 1.575 46.8 46.8 55.3333 0 0 0
295 0 5 1.575 46.8 48.9334 40.4 0 0 0
296 0 4 1.05 46.8 48.9334 48.9334 0 0 0
297 0 5 1.575 46.8 48.9334 57.4666 0 0 0
298 0 4 1.05 46.8 51.0666 42.5334 0 0 0
299 0 4 1.05 46.8 51.0666 51.0666 0 0 0
300 0 4 1.05 46.8 51.0666 59.6 0 0 0
301 0 5 1.575 46.8 53.2 44.6667 0 0 0
302 0 4 1.05 46.8 53.2 53.2 0 0 0
303 0 5 1.575 46.8 53.2 61.7333 0 0 0
304 0 4 1.05 46.8 55.3333 38.2667 0 0 0
305 0 4 1.05 46.8 55.3333 46.8 0 0 0
306 0 4 1.05 46.8 55.3333 55.3333 0 0 0
307 0 4 1.05 46.8 57.4666 40.4 0 0 0
308 0 5 1.575 46.8 57.4666 48.9334 0 0 0
309 0 4 1.05 46.8 57.4666 57.4666 0 0 0
310 0 4 1.05 46.8 59.6 42.5334 0 0 0
311 0 4 1.05 46.8 59.6 51.0666 0 0 0
312 0 5 1.575 46.8 61.7333 44.6667 0 0 0
313 0 5 1.575 46.8 61.7333 53.2 0 0 0
314 0 3 -1.05 46.8371 38.3038 48.8963 0 0 0
315 0 3 -1.05 46.8371 40.362899999999996 46.8371 0 0 0
316 0 3 -1.05 46.8371 40.362899999999996 55.3703 0 0 0
317 0 3 -1.05 46.8371 42.5704 44.629599999999996 0 0 0
318 0 3 -1.05 46.8371 42.5704 53.1628 0 0 0
319 0 3 -1.05 46.8371 44.629599999999996 42.5704 0 0 0
320 0 3 -1.05 46.8371 44.629599999999996 51.1037 0 0 0
321 0 3 -1.05 46.8371 44.629599999999996 59.637 0 0 0
322 0 3 -1.05 46.8371 46.8371 40.362899999999996 0 0 0
323 0 3 -1.05 46.8371 46.8371 48.8963 0 0 0
324 0 3 -1.05 46.8371 46.8371 57.4295 0 0 0
325 0 3 -1.05 46.8371 48.8963 38.3038 0 0 0
326 0 3 -1.05 46.8371 48.8963 46.8371 0 0 0
327 0 3 -1.05 46.8371 48.8963 55.3703 0 0 0
328 0 3 -1.05 46.8371 51.1037 44.629599999999996 0 0 0
329 0 3 -1.05 46.8371 51.1037 53.1628 0 0 0
330 0 3 -1.05 46.8371 51.1037 61.6962 0 0 0
331 0 3 -1.05 46.8371 53.1628 42.5704 0 0 0
332 0 3 -1.05 46.8371 53.1628 51.1037 0 0 0
333 0 3 -1.05 46.8371 53.1628 59.637 0 0 0
334 0 3 -1.05 46.8371 55.3703 40.362899999999996 0 0 0
335 0 3 -1.05 46.8371 55.3703 48.8963 0 0 0
336 0 3 -1.05 46.8371 55.3703 57.4295 0 0 0
337 0 3 -1.05 46.8371 57.4295 46.8371 0 0 0
338 0 3 -1.05 46.8371 57.4295 55.3703 0 0 0
339 0 3 -1.05 46.8371 59.637 44.629599999999996 0 0 0
340 0 3 -1.05 46.8371 59.637 53.1628 0 0 0
341 0 3 -1.05 46.8371 61.6962 51.1037 0 0 0
342 0 4 1.05 47.8667 39.3334 43.6 0 0 0
343 0 5 1.575 47.8667 39.3334 52.1333 0 0 0
344 0 4 1.05 47.8667 43.6 39.3334 0 0 0
345 0 5 1.575 47.8667 43.6 47.8667 0 0 0
346 0 4 1.05 47.8667 43.6 56.4 0 0 0
347 0 5 1.575 47.8667 47.8667 43.6 0 0 0
348 0 5 1.575 47.8667 47.8667 52.1333 0 0 0
349 0 4 1.05 47.8667 47.8667 60.6666 0 0 0
350 0 5 1.575 47.8667 52.1333 39.3334 0 0 0
351 0 5 1.575 47.8667 52.1333 47.8667 0 0 0
352 0 4 1.05 47.8667 52.1333 56.4 0 0 0
353 0 4 1.05 47.8667 56.4 43.6 0 0 0
354 0 4 1.05 47.8667 56.4 52.1333 0 0 0
355 0 5 1.575 47.8667 56.4 60.6666 0 0 0
356 0 5 1.575 47.8667 60.6666 47.8667 0 0 0
357 0 4 1.05 47.8667 60.6666 56.4 0 0 0
358 0 3 -1.05 48.8963 38.3038 46.8371 0 0 0
359 0 3 -1.05 48.8963 38.3038 55.3703 0 0 0
360 0 3 -1.05 48.8963 40.362899999999996 48.8963 0 0 0
361 0 3 -1.05 48.8963 40.362899999999996 57.4295 0 0 0
362 0 3 -1.05 48.8963 42.5704 42.5704 0 0 0
363 0 3 -1.05 48.8963 42.5704 51.1037 0 0 0
364 0 3 -1.05 48.8963 42.5704 59.637 0 0 0
365 0 3 -1.05 48.8963 44.629599999999996 44.629599999999996 0 0 0
366 0 3 -1.05 48.8963 44.629599999999996 53.1628 0 0 0
367 0 3 -1.05 48.8963 44.629599999999996 61.6962 0 0 0
368 0 3 -1.05 48.8963 46.8371 38.3038 0 0 0
369 0 3 -1.05 48.8963 46.8371 46.8371 0 0 0
370 0 3 -1.05 48.8963 46.8371 55.3703 0 0 0
371 0 3 -1.05 48.8963 48.8963 40.362899999999996 0 0 0
372 0 3 -1.05 48.8963 48.8963 48.8963 0 0 0
373 0 3 -1.05 48.8963 48.8963 57.4295 0 0 0
374 0 3 -1.05 48.8963 51.1037 42.5704 0 0 0
375 0 3 -1.05 48.8963 51.1037 51.1037 0 0 0
376 0 3 -1.05 48.8963 51.1037 59.637 0 0 0
377 0 3 -1.05 48.8963 53.1628 44.629599999999996 0 0 0
378 0 3 -1.05 48.8963 53.1628 53.1628 0 0 0
379 0 3 -1.05 48.8963 53.1628 61.6962 0 0 0
380 0 3 -1.05 48.8963 55.3703 38.3038 0 0 0
381 0 3 -1.05 48.8963 55.3703 46.8371 0 0 0
382 0 3 -1.05 48.8963 55.3703 55.3703 0 0 0
383 0 3 -1.05 48.8963 57.4295 40.362899999999996 0 0 0
384 0 3 -1.05 48.8963 57.4295 48.8963 0 0 0
385 0 3 -1.05 48.8963 57.4295 57.4295 0 0 0
386 0 3 -1.05 48.8963 59.637 42.5704 0 0 0
387 0 3 -1.05 48.8963 59.637 51.1037 0 0 0
388 0 3 -1.05 48.8963 61.6962 44.629599999999996 0 0 0
389 0 3 -1.05 48.8963 61.6962 53.1628 0 0 0
390 0 4 1.05 48.9334 38.2667 48.9334 0 0 0
391 0 4 1.05 48.9334 40.4 46.8 0 0 0
392 0 4 1.05 48.9334 40.4 55.3333 0 0 0
393 0 4 1.05 48.9334 42.5334 44.6667 0 0 0
394 0 4 1.05 48.9334 42.5334 53.2 0 0 0
395 0 5 1.575 48.9334 44.6667 42.5334 0 0 0
396 0 5 1.575 48.9334 44.6667 51.0666 0 0 0
397 0 4 1.05 48.9334 44.6667 59.6 0 0 0
398 0 5 1.575 48.9334 46.8 40.4 0 0 0
399 0 5 1.575 48.9334 46.8 48.9334 0 0 0
400 0 5 1.575 48.9334 46.8 57.4666 0 0 0
401 0 5 1.575 48.9334 48.9334 38.2667 0 0 0
402 0 5 1.575 48.9334 48.9334 46.8 0 0 0
403 0 5 1.575 48.9334 48.9334 55.3333 0 0 0
404 0 5 1.575 48.9334 51.0666 44.6667 0 0 0
405 0 5 1.575 48.9334 51.0666 53.2 0 0 0
406 0 4 1.05 48.9334 51.0666 61.7333 0 0 0
407 0 5 1.575 48.9334 53.2 42.5334 0 0 0
408 0 5 1.575 48.9334 53.2 51.0666 0 0 0
409 0 4 1.05 48.9334 53.2 59.6 0 0 0
410 0 4 1.05 48.9334 55.3333 40.4 0 0 0
411 0 4 1.05 48.9334 55.3333 48.9334 0 0 0
412 0 5 1.575 48.9334 55.3333 57.4666 0 0 0
413 0 4 1.05 48.9334 57.4666 46.8 0 0 0
414 0 4 1.05 48.9334 57.4666 55.3333 0 0 0
415 0 5 1.575 48.9334 59.6 44.6667 0 0 0
416 0 5 1.575 48.9334 59.6 53.2 0 0 0
417 0 4 1.05 48.9334 61.7333 51.0666 0 0 0
418 0 3 -1.05 48.9704 38.2296 51.0295 0 0 0
419 0 3 -1.05 48.9704 40.437200000000004 44.7037 0 0 0
420 0 3 -1.05 48.9704 40.437200000000004 53.237 0 0 0
421 0 3 -1.05 48.9704 42.4962 46.763 0 0 0
422 0 3 -1.05 48.9704 42.4962 55.2961 0 0 0
423 0 3 -1.05 48.9704 44.7037 40.437200000000004 0 0 0
424 0 3 -1.05 48.9704 44.7037 48.9704 0 0 0
425 0 3 -1.05 48.9704 44.7037 57.5037 0 0 0
426 0 3 -1.05 48.9704 46.763 42.4962 0 0 0
427 0 3 -1.05 48.9704 46.763 51.0295 0 0 0
428 0 3 -1.05 48.9704 46.763 59.562799999999996 0 0 0
429 0 3 -1.05 48.9704 48.9704 44.7037 0 0 0
430 0 3 -1.05 48.9704 48.9704 53.237 0 0 0
431 0 3 -1.05 48.9704 48.9704 61.7703 0 0 0
432 0 3 -1.05 48.9704 51.0295 38.2296 0 0 0
433 0 3 -1.05 48.9704 51.0295 46.763 0 0 0
434 0 3 -1.05 48.9704 51.0295 55.2961 0 0 0
435 0 3 -1.05 48.9704 53.237 40.437200000000004 0 0 0
436 0 3 -1.05 48.9704 53.237 48.9704 0 0 0
437 0 3 -1.05 48.9704 53.237 57.5037 0 0 0
438 0 3 -1.05 48.9704 55.2961 42.4962 0 0 0
439 0 3 -1.05 48.9704 55.2961 51.0295 0 0 0
440 0 3 -1.05 48.9704 55.2961 59.562799999999996 0 0 0
441 0 3 -1.05 48.9704 57.5037 44.7037 0 0 0
442 0 3 -1.05 48.9704 57.5037 53.237 0 0 0
443 0 3 -1.05 48.9704 59.562799999999996 46.763 0 0 0
444 0 3 -1.05 48.9704 59.562799999999996 55.2961 0 0 0
445 0 3 -1.05 48.9704 61.7703 48.9704 0 0 0
446 0 4 1.05 50 41.4667 41.4667 0 0 0
447 0 5 1.575 50 41.4667 50 0 0 0
448 0 5 1.575 50 41.4667 58.5333 0 0 0
449 0 4 1.05 50 45.7334 45.7334 0 0 0
450 0 5 1.575 50 45.7334 54.2666 0 0 0
451 0 5 1.575 50 50 41.4667 0 0 0
452 0 5 1.575 50 50 50 0 0 0
453 0 5 1.575 50 50 58.5333 0 0 0
454 0 4 1.05 50 54.2666 45.7334 0 0 0
455 0 5 1.575 50 54.2666 54.2666 0 0 0
456 0 5 1.575 50 58.5333 41.4667 0 0 0
457 0 5 1.575 50 58.5333 50 0 0 0
458 0 5 1.575 50 58.5333 58.5333 0 0 0
459 0 3 -1.05 51.0295 38.2296 48.9704 0 0 0
460 0 3 -1.05 51.0295 40.437200000000004 46.763 0 0 0
461 0 3 -1.05 51.0295 40.437200000000004 55.2961 0 0 0
462 0 3 -1.05 51.0295 42.4962 44.7037 0 0 0
463 0 3 -1.05 51.0295 42.4962 53.237 0 0 0
464 0 3 -1.05 51.0295 44.7037 42.4962 0 0 0
465 0 3 -1.05 51.0295 44.7037 51.0295 0 0 0
466 0 3 -1.05 51.0295 44.7037 59.562799999999996 0 0 0
467 0 3 -1.05 51.0295 46.763 40.437200000000004 0 0 0
468 0 3 -1.05 51.0295 46.763 48.9704 0 0 0
469 0 3 -1.05 51.0295 46.763 57.5037 0 0 0
470 0 3 -1.05 51.0295 48.9704 38.2296 0 0 0
471 0 3 -1.05 51.0295 48.9704 46.763 0 0 0
472 0 3 -1.05 51.0295 48.9704 55.2961 0 0 0
473 0 3 -1.05 51.0295 51.0295 44.7037 0 0 0
474 0 3 -1.05 51.0295 51.0295 53.237 0 0 0
475 0 3 -1.05 51.0295 51.0295 61.7703 0 0 0
476 0 3 -1.05 51.0295 53.237 42.4962 0 0 0
477 0 3 -1.05 51.0295 53.237 51.0295 0 0 0
478 0 3 -1.05 51.0295 53.237 59.562799999999996 0 0 0
479 0 3 -1.05 51.0295 55.2961 40.437200000000004 0 0 0
480 0 3 -1.05 51.0295 55.2961 48.9704 0 0 0
481 0 3 -1.05 51.0295 55.2961 57.5037 0 0 0
482 0 3 -1.05 51.0295 57.5037 46.763 0 0 0
483 0 3 -1.05 51.0295 57.5037 55.2961 0 0 0
484 0 3 -1.05 51.0295 59.562799999999996 44.7037 0 0 0
485 0 3 -1.05 51.0295 59.562799999999996 53.237 0 0 0
486 0 3 -1.05 51.0295 61.7703 51.0295 0 0 0
487 0 5 1.575 51.0666 38.2667 51.0666 0 0 0
488 0 4 1.05 51.0666 40.4 44.6667 0 0 0
489 0 4 1.05 51.0666 40.4 53.2 0 0 0
490 0 5 1.575 51.0666 42.5334 46.8 0 0 0
491 0 5 1.575 51.0666 42.5334 55.3333 0 0 0
492 0 5 1.575 51.0666 44.6667 40.4 0 0 0
493 0 5 1.575 51.0666 44.6667 48.9334 0 0 0
494 0 4 1.05 51.0666 44.6667 57.4666 0 0 0
495 0 4 1.05 51.0666 46.8 42.5334 0 0 0
496 0 5 1.575 51.0666 46.8 51.0666 0 0 0
497 0 4 1.05 51.0666 46.8 59.6 0 0 0
498 0 4 1.05 51.0666 48.9334 44.6667 0 0 0
499 0 5 1.575 51.0666 48.9334 53.2 0 0 0
500 0 4 1.05 51.0666 48.9334 61.7333 0 0 0
501 0 4 1.05 51.0666 51.0666 38.2667 0 0 0
502 0 4 1.05 51.0666 51.0666 46.8 0 0 0
503 0 5 1.575 51.0666 51.0666 55.3333 0 0 0
504 0 5 1.575 51.0666 53.2 40.4 0 0 0
505 0 4 1.05 51.0666 53.2 48.9334 0 0 0
506 0 5 1.575 51.0666 53.2 57.4666 0 0 0
507 0 4 1.05 51.0666 55.3333 42.5334 0 0 0
508 0 5 1.575 51.0666 55.3333 51.0666 0 0 0
509 0 4 1.05 51.0666 55.3333 59.6 0 0 0
510 0 5 1.575 51.0666 57.4666 44.6667 0 0 0
511 0 5 1.575 51.0666 57.4666 53.2 0 0 0
512 0 5 1.575 51.0666 59.6 46.8 0 0 0
513 0 5 1.575 51.0666 59.6 55.3333 0 0 0
514 0 4 1.05 51.0666 61.7333 48.9334 0 0 0
515 0 3 -1.05 51.1037 38.3038 44.629599999999996 0 0 0
516 0 3 -1.05 51.1037 38.3038 53.1628 0 0 0
517 0 3 -1.05 51.1037 40.362899999999996 42.5704 0 0 0
518 0 3 -1.05 51.1037 40.362899999999996 51.1037 0 0 0
519 0 3 -1.05 51.1037 42.5704 40.362899999999996 0 0 0
520 0 3 -1.05 51.1037 42.5704 48.8963 0 0 0
521 0 3 -1.05 51.1037 42.5704 57.4295 0 0 0
522 0 3 -1.05 51.1037 44.629599999999996 38.3038 0 0 0
523 0 3 -1.05 51.1037 44.629599999999996 46.8371 0 0 0
524 0 3 -1.05 51.1037 44.629599999999996 55.3703 0 0 0
525 0 3 -1.05 51.1037 46.8371 44.629599999999996 0 0 0
526 0 3 -1.05 51.1037 46.8371 53.1628 0 0 0
527 0 3 -1.05 51.1037 46.8371 61.6962 0 0 0
528 0 3 -1.05 51.1037 48.8963 42.5704 0 0 0
529 0 3 -1.05 51.1037 48.8963 51.1037 0 0 0
530 0 3 -1.05 51.1037 48.8963 59.637 0 0 0
531 0 3 -1.05 51.1037 51.1037 40.362899999999996 0 0 0
532 0 3 -1.05 51.1037 51.1037 48.8963 0 0 0
533 0 3 -1.05 51.1037 51.1037 57.4295 0 0 0
534 0 3 -1.05 51.1037 53.1628 38.3038 0 0 0
535 0 3 -1.05 51.1037 53.1628 46.8371 0 0 0
536 0 3 -1.05 51.1037 53.1628 55.3703 0 0 0
537 0 3 -1.05 51.1037 55.3703 44.629599999999996 0 0 0
538 0 3 -1.05 51.1037 55.3703 53.1628 0 0 0
539 0 3 -1.05 51.1037 55.3703 61.6962 0 0 0
540 0 3 -1.05 51.1037 57.4295 42.5704 0 0 0
541 0 3 -1.05 51.1037 57.4295 51.1037 0 0 0
542 0 3 -1.05 51.1037 57.4295 59.637 0 0 0
543 0 3 -1.05 51.1037 59.637 48.8963 0 0 0
544 0 3 -1.05 51.1037 59.637 57.4295 0 0 0
545 0 3 -1.05 51.1037 61.6962 46.8371 0 0 0
546 0 3 -1.05 51.1037 61.6962 55.3703 0 0 0
547 0 5 1.575 52.1333 39.3334 47.8667 0 0 0
548 0 4 1.05 52.1333 39.3334 56.4 0 0 0
549 0 5 1.575 52.1333 43.6 43.6 0 0 0
550 0 5 1.575 52.1333 43.6 52.1333 0 0 0
551 0 5 1.575 52.1333 43.6 60.6666 0 0 0
552 0 4 1.05 52.1333 47.8667 39.3334 0 0 0
553 0 5 1.575 52.1333 47.8667 47.8667 0 0 0
554 0 4 1.05 52.1333 47.8667 56.4 0 0 0
555 0 4 1.05 52.1333 52.1333 43.6 0 0 0
556 0 5 1.575 52.1333 52.1333 52.1333 0 0 0
557 0 4 1.05 52.1333 52.1333 60.6666 0 0 0
558 0 5 1.575 52.1333 56.4 39.3334 0 0 0
559 0 5 1.575 52.1333 56.4 47.8667 0 0 0
560 0 4 1.05 52.1333 56.4 56.4 0 0 0
561 0 4 1.05 52.1333 60.6666 43.6 0 0 0
562 0 5 1.575 52.1333 60.6666 52.1333 0 0 0
563 0 3 -1.05 53.1628 38.3038 51.1037 0 0 0
564 0 3 -1.05 53.1628 40.362899999999996 44.629599999999996 0 0 0
565 0 3 -1.05 53.1628 40.362899999999996 53.1628 0 0 0
566 0 3 -1.05 53.1628 42.5704 46.8371 0 0 0
567 0 3 -1.05 53.1628 42.5704 55.3703 0 0 0
568 0 3 -1.05 53.1628 44.629599999999996 40.362899999999996 0 0 0
569 0 3 -1.05 53.1628 44.629599999999996 48.8963 0 0 0
570 0 3 -1.05 53.1628 44.629599999999996 57.4295 0 0 0
571 0 3 -1.05 53.1628 46.8371 42.5704 0 0 0
572 0 3 -1.05 53.1628 46.8371 51.1037 0 0 0
573 0 3 -1.05 53.1628 46.8371 59.637 0 0 0
574 0 3 -1.05 53.1628 48.8963 44.629599999999996 0 0 0
575 0 3 -1.05 53.1628 48.8963 53.1628 0 0 0
576 0 3 -1.05 53.1628 48.8963 61.6962 0 0 0
577 0 3 -1.05 53.1628 51.1037 38.3038 0 0 0
578 0 3 -1.05 53.1628 51.1037 46.8371 0 0 0
579 0 3 -1.05 53.1628 51.1037 55.3703 0 0 0
580 0 3 -1.05 53.1628 53.1628 40.362899999999996 0 0 0
581 0 3 -1.05 53.1628 53.1628 48.8963 0 0 0
582 0 3 -1.05 53.1628 53.1628 57.4295 0 0 0
583 0 3 -1.05 53.1628 55.3703 42.5704 0 0 0
584 0 3 -1.05 53.1628 55.3703 51.1037 0 0 0
585 0 3 -1.05 53.1628 55.3703 59.637 0 0 0
586 0 3 -1.05 53.1628 57.4295 44.629599999999996 0 0 0
587 0 3 -1.05 53.1628 57.4295 53.1628 0 0 0
588 0 3 -1.05 53.1628 59.637 46.8371 0 0 0
589 0 3 -1.05 53.1628 59.637 55.3703 0 0 0
590 0 3 -1.05 53.1628 61.6962 48.8963 0 0 0
591 0 5 1.575 53.2 38.2667 44.6667 0 0 0
592 0 4 1.05 53.2 38.2667 53.2 0 0 0
593 0 4 1.05 53.2 40.4 42.5334 0 0 0
594 0 5 1.575 53.2 40.4 51.0666 0 0 0
595 0 5 1.575 53.2 42.5334 40.4 0 0 0
596 0 5 1.575 53.2 42.5334 48.9334 0 0 0
597 0 4 1.05 53.2 42.5334 57.4666 0 0 0
598 0 4 1.05 53.2 44.6667 38.2667 0 0 0
599 0 5 1.575 53.2 44.6667 46.8 0 0 0
600 0 4 1.05 53.2 44.6667 55.3333 0 0 0
601 0 5 1.575 53.2 46.8 44.6667 0 0 0
602 0 5 1.575 53.2 46.8 53.2 0 0 0
603 0 5 1.575 53.2 46.8 61.7333 0 0 0
604 0 5 1.575 53.2 48.9334 42.5334 0 0 0
605 0 5 1.575 53.2 48.9334 51.0666 0 0 0
606 0 5 1.575 53.2 48.9334 59.6 0 0 0
607 0 5 1.575 53.2 51.0666 40.4 0 0 0
608 0 5 1.575 53.2 51.0666 48.9334 0 0 0
609 0 4 1.05 53.2 51.0666 57.4666 0 0 0
610 0 5 1.575 53.2 53.2 38.2667 0 0 0
611 0 5 1.575 53.2 53.2 46.8 0 0 0
612 0 5 1.575 53.2 53.2 55.3333 0 0 0
613 0 5 1.575 53.2 55.3333 44.6667 0 0 0
614 0 4 1.05 53.2 55.3333 53.2 0 0 0
615 0 5 1.575 53.2 55.3333 61.7333 0 0 0
616 0 5 1.575 53.2 57.4666 42.5334 0 0 0
617 0 4 1.05 53.2 57.4666 51.0666 0 0 0
618 0 4 1.05 53.2 57.4666 59.6 0 0 0
619 0 5 1.575 53.2 59.6 48.9334 0 0 0
620 0 4 1.05 53.2 59.6 57.4666 0 0 0
621 0 4 1.05 53.2 61.7333 46.8 0 0 0
622 0 5 1.575 53.2 61.7333 55.3333 0 0 0
623 0 3 -1.05 53.237 38.2296 46.763 0 0 0
624 0 3 -1.05 53.237 40.437200000000004 48.9704 0 0 0
625 0 3 -1.05 53.237 40.437200000000004 57.5037 0 0 0
626 0 3 -1.05 53.237 42.4962 42.4962 0 0 0
627 0 3 -1.05 53.237 42.4962 51.0295 0 0 0
628 0 3 -1.05 53.237 42.4962 59.562799999999996 0 0 0
629 0 3 -1.05 53.237 44.7037 44.7037 0 0 0
630 0 3 -1.05 53.237 44.7037 53.237 0 0 0
631 0 3 -1.05 53.237 46.763 38.2296 0 0 0
632 0 3 -1.05 53.237 46.763 46.763 0 0 0
633 0 3 -1.05 53.237 46.763 55.2961 0 0 0
634 0 3 -1.05 53.237 48.9704 40.437200000000004 0 0 0
635 0 3 -1.05 53.237 48.9704 48.9704 0 0 0
636 0 3 -1.05 53.237 48.9704 57.5037 0 0 0
637 0 3 -1.05 53.237 51.0295 42.4962 0 0 0
638 0 3 -1.05 53.237 51.0295 51.0295 0 0 0
639 0 3 -1.05 53.237 51.0295 59.562799999999996 0 0 0
640 0 3 -1.05 53.237 53.237 44.7037 0 0 0
641 0 3 -1.05 53.237 53.237 53.237 0 0 0
642 0 3 -1.05 53.237 53.237 61.7703 0 0 0
643 0 3 -1.05 53.237 55.2961 46.763 0 0 0
644 0 3 -1.05 53.237 55.2961 55.2961 0 0 0
645 0 3 -1.05 53.237 57.5037 40.437200000000004 0 0 0
646 0 3 -1.05 53.237 57.5037 48.9704 0 0 0
647 0 3 -1.05 53.237 57.5037 57.5037 0 0 0
648 0 3 -1.05 53.237 59.562799999999996 42.4962 0 0 0
649 0 3 -1.05 53.237 59.562799999999996 51.0295 0 0 0
650 0 3 -1.05 53.237 61.7703 53.237 0 0 0
651 0 5 1.575 54.2666 41.4667 45.7334 0 0 0
652 0 4 1.05 54.2666 41.4667 54.2666 0 0 0
653 0 5 1.575 54.2666 45.7334 41.4667 0 0 0
654 0 4 1.05 54.2666 45.7334 50 0 0 0
655 0 5 1.575 54.2666 45.7334 58.5333 0 0 0
656 0 4 1.05 54.2666 50 45.7334 0 0 0
657 0 4 1.05 54.2666 50 54.2666 0 0 0
658 0 5 1.575 54.2666 54.2666 41.4667 0 0 0
659 0 5 1.575 54.2666 54.2666 50 0 0 0
660 0 4 1.05 54.2666 54.2666 58.5333 0 0 0